LAMMPS data file via write_data, version 23 Jun 2022, timestep = 2000000

14800 atoms
16 atom types
14400 bonds
17 bond types
15600 angles
19 angle types
24400 dihedrals
28 dihedral types
2000 impropers
5 improper types

-23.322996179261665 23.322996179261665 xlo xhi
-23.32371095083079 23.32371095083079 ylo yhi
-23.33157343804736 23.33157343804736 zlo zhi

Masses

1 11.61
2 11.61
3 1.008
4 1.008
5 13.61
6 11.61
7 1.008
8 1.008
9 10.411
10 18.6
11 0.4
12 0.4
13 0.4
14 0.4
15 0.4
16 0.4

Bond Coeffs # harmonic

1 503.999 1.371
2 350.1 1.083
3 438.798 1.371
4 350.1 1.083
5 438.798 1.371
6 356 1.079
7 334.699 1.456
8 335.899 1.093
9 303.1 1.535
10 337.3 1.092
11 290.002 1.393
12 500 0
13 500 0
14 500 0
15 500 0
16 500 0
17 500 0

Angle Coeffs # harmonic

1 47.1901 129.11
2 72.9105 109.42
3 68.9401 109.9
4 62.5592 125.09
5 47.1901 129.11
6 72.9105 109.42
7 63.8806 128.01
8 62.5592 125.09
9 49.7596 122.1
10 50.2206 119.66
11 50.2206 119.66
12 73.6497 109.33
13 49.9007 109.45
14 65.7307 112.81
15 39.1797 109.55
16 46.3694 110.05
17 46.3595 110.07
18 39.4301 108.35
19 50.0002 109.47

Dihedral Coeffs # charmm

1 4 2 180 0
2 4 2 180 0
3 4 2 180 0
4 4 2 180 0
5 1.69999 2 180 0
6 1.69999 2 180 0
7 1.69999 2 180 0
8 1.69999 2 180 0
9 1.69999 2 180 0
10 1.69999 2 180 0
11 1.69999 2 180 0
12 1.69999 2 180 0
13 1.69999 2 180 0
14 1.69999 2 180 0
15 1.69999 2 180 0
16 1.69999 2 180 0
17 0.165514 3 0 0
18 -0.0559 2 180 0
19 0.194825 3 0 0
20 0.0553039 4 180 0
21 1.69999 2 180 0
22 1.69999 2 180 0
23 -0.0534558 1 0 0
24 0.0797664 2 180 0
25 0.192918 3 0 0
26 0.047832 4 180 0
27 0.155995 3 0 0
28 0.155995 3 0 0

Improper Coeffs # cvff

1 1.1 -1 2
2 1.1 -1 2
3 1.1 -1 2
4 1.1 -1 2
5 1.1 -1 2

Atoms # full

10036 55 13 -1.907313 -18.35049085564652 -17.36601915475892 -18.117682245149872 1 0 0
10037 55 11 -2.086039 -19.309441999347108 -17.51697036621124 -17.110866713428006 1 0 0
1034 55 1 1.947075 -19.32776528325566 -17.528892613441986 -17.124292341950124 1 0 0
1029 55 3 0.232656 -20.392369867103334 -17.60286302531574 -17.254589114772955 1 0 0
10035 55 13 -1.907313 -18.65119592234725 -17.538648716315045 -15.935648924152435 1 0 0
1032 55 5 2.176607 -18.65555063413884 -17.53061678535657 -15.913736106561599 1 0 0
1035 55 6 2.057063 -19.304546881461754 -17.326892509176176 -14.574458854287785 1 0 0
10038 55 14 -2.444943 -19.301770249059206 -17.331295963075227 -14.615266339090624 1 0 0
12912 423 16 -1.371919 -18.227672496906646 -20.308910082308245 -20.742764946516054 1 0 1
1033 55 5 1.997624 -18.360104163848085 -17.38100399866628 -18.12051920588406 1 0 0
10039 55 14 -2.444943 -18.644260280641525 -17.351680554492347 -19.51043945891001 1 0 0
1039 55 6 2.414929 -18.635769161478322 -17.370276447061983 -19.5459456870886 1 0 0
10033 55 11 -2.086039 -17.138738285409673 -17.270765442424832 -17.509606421562243 1 0 0
1027 55 1 1.91034 -17.129881740034733 -17.274018976826735 -17.519830887924392 1 0 0
1037 55 7 0.182419 -19.735662288743065 -18.328303548907833 -14.435247534852603 1 0 0
9884 36 13 -1.907313 -17.973336138340912 -21.231191539788966 -15.855641745902409 0 0 1
672 36 5 1.997624 -17.963733609475568 -21.22982079897181 -15.854183423493303 0 0 1
1038 55 7 0.182419 -18.629927978336532 -17.141700517705573 -13.79296475895785 1 0 0
1041 55 7 0.108465 -19.374858746118147 -18.1668205834807 -19.807100804031972 1 0 0
1040 55 7 0.108465 -17.650942072276457 -17.639467980850267 -19.977260805372527 1 0 0
1042 55 6 2.284667 -18.93148840622809 -15.920751469443179 -20.065291146777714 1 0 0
10040 55 14 -2.444943 -18.91395038066613 -15.913000793732728 -20.063091010816734 1 0 0
9887 36 14 -2.444943 -16.948610513345937 -21.245521079046895 -16.86986681173297 0 0 1
678 36 6 2.414929 -16.921598939316468 -21.23470235110413 -16.900186298613185 0 0 1
9883 36 13 -1.907313 -19.782663491179598 -20.829486655607923 -14.78202634180685 0 0 1
671 36 5 2.176607 -19.809979270732942 -20.8410164160755 -14.776667311483457 0 0 1
673 36 1 1.947075 -19.21203989820613 -20.6491118040932 -15.97584607412764 0 0 1
9885 36 11 -2.086039 -19.22470201991605 -20.631844090903083 -15.952874590790392 0 0 1
668 36 3 0.232656 -19.73880034219592 -20.612580857812606 -16.910117125627963 0 0 1
1036 55 7 0.182419 -20.075908541131675 -16.5785010039438 -14.59875164740944 1 0 0
10034 55 12 -2.086039 -17.306236460189595 -17.345883961319444 -16.110855804573692 1 0 0
1028 55 2 1.882547 -17.28021802448747 -17.354072627026866 -16.137499888738095 1 0 0
1031 55 4 0.238543 -16.512474978732694 -17.434933220035848 -15.375299754343807 1 0 0
1030 55 4 0.246748 -16.251102312528566 -17.100126149655896 -18.153016741806304 1 0 0
9882 36 12 -2.086039 -18.98440197271298 -21.419539842433476 -13.874713864241167 0 0 1
667 36 2 1.882547 -18.96418909165013 -21.43959333519671 -13.853418312362205 0 0 1
666 36 1 1.91034 -17.795467367707126 -21.741468617417777 -14.564447679392824 0 0 1
9881 36 11 -2.086039 -17.79802312444008 -21.73666751435947 -14.586715844993146 0 0 1
674 36 6 2.057063 -21.226835667214836 -20.638866463747004 -14.557072911843331 0 0 1
9886 36 14 -2.444943 -21.179243267999592 -20.645373521904943 -14.567370620213218 0 0 1
1045 55 8 0.08486200000000001 -19.86655957585938 -15.619622454926155 -19.573256655396595 1 0 0
680 36 7 0.108465 -16.329695271881878 -20.348726485562374 -16.726207811824768 0 0 1
1043 55 8 0.08486200000000001 -18.20891081038374 -15.173489519096233 -19.905884374513708 1 0 0
1044 55 8 0.08486200000000001 -19.18693581200198 -15.986296600886103 -21.16671590740694 1 0 0
6482 342 3 0.232656 -21.88755067798553 -20.667024223951287 -19.569290213248713 1 0 0
7712 423 10 0.915019 -18.212239099035948 -20.312743367902556 -20.744360157536796 1 0 1
7711 423 9 2.146927 -19.109371972702508 -21.3512419636619 -20.392576238613433 1 0 1
12911 423 15 -1.319327 -19.120977986137294 -21.344174283899346 -20.39085845451505 1 0 1
7713 423 10 0.915019 -20.21909209551839 -21.660943110145535 -21.08672892430267 1 0 1
12913 423 16 -1.371919 -20.224108585335152 -21.655534729158216 -21.08011196584565 1 0 1
669 36 4 0.246748 -16.828939231086704 -22.130826062005195 -14.287258810078137 0 0 1
670 36 4 0.238543 -19.27096419776491 -21.6696994877406 -12.837748357963992 0 0 1
9888 36 14 -2.444943 -16.065868561868534 -22.526769652778373 -16.888562137752906 0 0 1
676 36 7 0.182419 -21.676588694424346 -21.44615924004849 -13.989463775150114 0 0 1
681 36 6 2.284667 -16.07330781316162 -22.505508983602805 -16.893942776027835 0 0 1
677 36 7 0.182419 -21.411371605522955 -19.680500872094534 -14.026994567195073 0 0 1
679 36 7 0.108465 -17.382944403568164 -21.26319142212671 -17.915247056030918 0 0 1
675 36 7 0.182419 -21.762130375074626 -20.541178371922744 -15.522697060361853 0 0 1
1513 80 7 0.182419 -21.629225477283985 -11.895726233849217 -23.172006880725775 0 0 1
13934 627 16 -1.371919 -23.310542857363213 -14.673052309664056 -22.24528487952277 1 0 0
7715 423 10 0.915019 -19.46890761252835 -21.015400463943035 -19.029821785228627 1 0 1
12915 423 16 -1.371919 -19.473197706566374 -21.008632072916495 -19.016060572653025 1 0 1
4322 228 6 2.057063 -23.23904020454109 -10.409188446604782 -21.169911830015185 1 0 1
682 36 8 0.08486200000000001 -15.452765646383732 -22.577344511177685 -17.768210210350517 0 0 1
13274 495 16 -1.371919 -22.393256161776467 -17.947302048298763 -17.753745346152407 1 0 0
8074 495 10 0.915019 -22.40454805731648 -17.945812190882567 -17.762795311342455 1 0 0
12914 423 16 -1.371919 -18.39801893098074 -22.431493276686314 -20.19419235144245 1 0 1
10028 54 13 -1.907313 -0.23284922906946548 -21.964077210067238 -12.814473758617003 0 0 0
1023 54 6 2.284667 -0.1772552809964978 -20.803670652405575 -15.038837784476689 0 0 0
1786 94 8 0.08486200000000001 -9.336268796236146 -8.234394594054763 -22.932036046962004 0 0 1
9487 778 10 0.915019 -17.941673271352048 -14.864925252244797 -12.872957005971644 0 0 0
14687 778 16 -1.371919 -17.951115041267165 -14.875956805106517 -12.863743230572794 0 0 0
7714 423 10 0.915019 -18.38847660269205 -22.44940731613463 -20.19452316211082 1 0 1
11056 182 14 -2.444943 -0.8395486811390711 -10.83336859327591 -22.69598015015271 0 0 0
8734 627 10 0.915019 -23.315653254124403 -14.677647698577124 -22.242964863811594 1 0 0
2429 128 6 2.284667 -6.331536562379654 -9.004619171563185 -12.47382240163704 0 0 0
13052 451 16 -1.371919 -14.608921212438434 -17.296018538868065 -21.410577708089953 0 0 0
7852 451 10 0.915019 -14.61783825889875 -17.30893438530404 -21.41270347824609 0 0 0
3456 182 8 0.08486200000000001 -1.6076229918099436 -11.572141519276514 -22.952949694985815 0 0 0
14219 684 16 -1.371919 -2.3720580257720414 -23.005677389235707 -21.712930241619684 0 1 1
2168 115 2 1.882547 -23.279892821843895 -15.266232458587735 -17.770852958153185 1 0 0
6491 342 7 0.182419 -22.13401563814735 -18.11511276168744 -20.737277731556436 1 0 0
1154 61 7 0.108465 -19.076712252220272 -20.098244659689275 -23.164924938324074 0 1 1
11422 228 14 -2.444943 -23.217807699413818 -10.406671219949358 -21.162556105722242 1 0 1
13931 627 15 -1.319327 -21.993767111068873 -14.562056548104653 -22.27494380459155 1 0 0
8731 627 9 2.146927 -21.993722275289002 -14.568104105153797 -22.275871935624348 1 0 0
8732 627 10 0.915019 -21.44764149289278 -15.910723643212942 -22.136923763360596 1 0 0
13932 627 16 -1.371919 -21.44742843795167 -15.909288652656642 -22.137759228770904 1 0 0
2432 128 8 0.08486200000000001 -5.444989163447037 -8.498320589560159 -12.771140935179693 0 0 0
12333 342 11 -2.086039 -22.674056690360967 -20.804958507677505 -20.336887957136938 1 0 0
1074 57 7 0.182419 -14.867531388058303 -8.206478470870028 -12.887913931827143 0 0 0
4138 218 7 0.108465 -16.562998123021956 -7.824934495846545 -18.230821668429865 0 0 1
6487 342 1 1.947075 -22.645930395380862 -20.801548477786838 -20.315668915592124 1 0 0
683 36 8 0.08486200000000001 -15.39054925128575 -22.473908872848313 -16.08767710996026 0 0 1
9019 684 10 0.915019 -2.3636330618185966 -23.00586931368838 -21.71601778034336 0 1 1
11405 226 11 -2.086039 -0.28103035348361516 -10.103629388482327 -15.02549263729174 0 0 0
4128 218 4 0.238543 -12.002070858556692 -8.824002204930627 -16.957034860030035 0 0 1
2247 119 4 0.238543 -0.5651639741679091 -17.278934014794075 -16.533559575698217 0 0 0
1155 61 7 0.108465 -19.625659375166137 -18.499476281025338 -22.717993183541385 0 1 1
2431 128 8 0.08486200000000001 -6.3467768963468885 -9.882755200650978 -13.138396356798378 0 0 0
6397 337 6 2.414929 -12.191879010699985 -21.254629097063738 -20.77275706892717 0 1 0
12295 337 14 -2.444943 -12.177051540007325 -21.26480839823049 -20.774756086128903 0 1 0
14787 798 16 -1.371919 -8.388684650600187 -22.73373659269549 -22.101121268246125 0 1 1
2064 109 7 0.182419 -13.798771452044347 -23.224517121067034 -12.853566753920669 0 1 0
9363 753 10 0.915019 -14.836326278759064 -20.10561564039227 -14.519429339785955 0 0 0
14563 753 16 -1.371919 -14.834220661149223 -20.09915190820292 -14.519221239940446 0 0 0
7853 451 10 0.915019 -14.423541178210183 -16.61986709604444 -19.332611772595534 0 0 0
13053 451 16 -1.371919 -14.432077962089487 -16.6073359950607 -19.324507846710887 0 0 0
6401 337 8 0.08486200000000001 -13.796294692119034 -21.422538517987217 -22.227068135843744 0 1 0
9365 753 10 0.915019 -14.093036105500595 -20.43074155173561 -16.542300029172814 0 0 0
14565 753 16 -1.371919 -14.096980838049474 -20.436800867241622 -16.53397351955175 0 0 0
6402 337 8 0.08486200000000001 -13.767904698375197 -22.8814514038242 -21.228190321269658 0 1 0
9364 753 10 0.915019 -13.5248015322062 -18.57410376310871 -15.538967370768077 0 0 0
14564 753 16 -1.371919 -13.528008099079395 -18.571519032640005 -15.538889614516776 0 0 0
3632 192 3 0.232656 -14.490637764271096 -18.06650478488715 -12.921261749797837 0 0 0
13051 451 15 -1.319327 -14.133057671570635 -17.617929441336496 -20.168993981962664 0 0 0
7851 451 9 2.146927 -14.135726912249345 -17.640619575164944 -20.17032615067147 0 0 0
6403 337 8 0.08486200000000001 -14.401345661951458 -21.49778640520256 -20.564677066772315 0 1 0
9362 753 10 0.915019 -12.668787389563555 -20.64236132819697 -14.921467989115758 0 0 0
14562 753 16 -1.371919 -12.686870135527174 -20.639967932991265 -14.915489732026913 0 0 0
6400 337 6 2.284667 -13.593676723653275 -21.789981536320532 -21.224574223877504 0 1 0
12296 337 14 -2.444943 -13.591975538745404 -21.79088314813121 -21.235810937269193 0 1 0
12291 337 13 -1.907313 -11.438120052006294 -22.873435690831176 -17.620831522373123 0 1 0
6390 337 5 2.176607 -11.475634507056776 -22.882222122394335 -17.597534641706993 0 1 0
12293 337 11 -2.086039 -12.324476330212212 -22.382136499168666 -18.47749232911138 0 1 0
9361 753 9 2.146927 -13.704382684690408 -19.97617798520152 -15.332287143893776 0 0 0
14561 753 15 -1.319327 -13.70538521595527 -19.972031214708707 -15.33124017856208 0 0 0
5781 305 4 0.238543 -10.107309828230123 -17.986394153617354 -19.88903715366605 0 0 0
12034 305 12 -2.086039 -9.726837305968049 -17.461456859638872 -19.03793179413553 0 0 0
5778 305 2 1.882547 -9.707813762839836 -17.433921022387146 -19.04015078940433 0 0 0
12035 305 13 -1.907313 -10.204855269414148 -17.37755629208579 -17.815830043966333 0 0 0
5782 305 5 2.176607 -10.234186508022084 -17.406524235920873 -17.798473274963364 0 0 0
12038 305 14 -2.444943 -11.297995881670218 -18.226178912171704 -17.48811473670403 0 0 0
5785 305 6 2.057063 -11.341024966607304 -18.260412840464845 -17.45996030683323 0 0 0
5788 305 7 0.182419 -12.337352301063376 -17.79331360777182 -17.32945686569989 0 0 0
5787 305 7 0.182419 -11.068513931396302 -18.81547950459356 -16.574060570441603 0 0 0
6392 337 1 1.947075 -12.352217869801946 -22.3728745464822 -18.496026650400214 0 1 0
12292 337 13 -1.907313 -11.653416909424074 -21.934103194140935 -19.557532654943415 0 1 0
6391 337 5 1.997624 -11.629365757909543 -21.947783351911504 -19.550069089104706 0 1 0
6386 337 2 1.882547 -10.178353979930524 -22.92880688676031 -18.04533385953538 0 1 0
12290 337 12 -2.086039 -10.184074426666445 -22.93514870060389 -18.04909409522707 0 1 0
6385 337 1 1.91034 -10.29413798468779 -22.44032048790657 -19.306205990327527 0 1 0
12289 337 11 -2.086039 -10.313433924640108 -22.418952780564343 -19.32151601858016 0 1 0
9346 750 9 2.146927 -8.592378333093812 -19.929139972092475 -14.096660005435403 0 1 0
14546 750 15 -1.319327 -8.589586567916601 -19.927399828145248 -14.087879113415985 0 1 0
5786 305 7 0.182419 -11.445338380105587 -18.993544936131308 -18.23798496846117 0 0 0
12037 305 11 -2.086039 -9.515161322272952 -16.634269416742324 -16.948313243861282 0 0 0
5784 305 1 1.947075 -9.510087182267057 -16.632193044414514 -16.9281528830996 0 0 0
5779 305 3 0.232656 -9.719534983821164 -16.39013600759092 -15.881364164921765 0 0 0
5777 305 1 1.91034 -8.653817166837365 -16.532012976683024 -18.974736630454302 0 0 0
12033 305 11 -2.086039 -8.666166894253534 -16.529135648499302 -18.98072629132929 0 0 0
7854 451 10 0.915019 -14.746739110471767 -18.87687477411781 -19.70580429855611 0 0 0
13054 451 16 -1.371919 -14.73611923165956 -18.854445602321928 -19.71348990400169 0 0 0
12036 305 13 -1.907313 -8.548053129952784 -16.038097526620298 -17.708807961444293 0 0 0
10470 109 14 -2.444943 -13.34916436746096 -22.327121217004485 -12.366451193398879 0 1 0
2061 109 6 2.057063 -13.37390579602881 -22.317592475150764 -12.413897810763887 0 1 0
5783 305 5 1.997624 -8.551339738527302 -16.021488494420456 -17.695512644623353 0 0 0
14786 798 15 -1.319327 -8.102223890224115 -21.48836015947461 -22.63417940147403 0 1 1
9586 798 9 2.146927 -8.102430390029236 -21.49424983378023 -22.63523003743669 0 1 1
4030 213 2 1.882547 -8.775064575967974 -15.982363953776929 -22.6546851695211 0 0 0
11298 213 12 -2.086039 -8.776000085041881 -15.98683945107394 -22.66549040831198 0 0 0
9588 798 10 0.915019 -8.73079898087334 -20.332016548727967 -22.13112161756353 0 1 1
14788 798 16 -1.371919 -8.730734583596211 -20.327614796471273 -22.137996094747482 0 1 1
12332 342 13 -1.907313 -23.186925103551022 -22.024756041822155 -20.72011939694601 1 0 0
3761 198 8 0.08486200000000001 -0.45181173824457943 -13.728440074874806 -22.11588193015801 0 0 0
13055 451 16 -1.371919 -12.779255581662078 -17.917145548506582 -20.199916218666072 0 0 0
7855 451 10 0.915019 -12.777433592224929 -17.915854121416338 -20.19483193931173 0 0 0
4043 213 7 0.108465 -12.697584256669195 -16.300092838906526 -22.641188505143134 0 0 0
3638 192 6 2.057063 -11.870302132821632 -18.63076793046967 -12.464052538002809 0 0 0
5780 305 4 0.246748 -7.988653385772192 -16.254001992168927 -19.73437411808091 0 0 0
9587 798 10 0.915019 -8.391155857138928 -22.747289369828035 -22.095180854353757 0 1 1
4436 234 6 2.057063 -23.12472122793077 -9.149746769844315 -16.659559460205976 0 0 0
4029 213 1 1.91034 -10.134677900715158 -15.778626439657497 -22.65387318124512 0 0 0
11297 213 11 -2.086039 -10.16157980441084 -15.80283206507131 -22.665913620554775 0 0 0
3090 163 7 0.182419 -14.21293585021889 -16.173368071984946 -17.176852307943935 0 0 0
9348 750 10 0.915019 -9.603097778460187 -19.312895487983912 -14.908894777781102 0 1 0
14548 750 16 -1.371919 -9.599957354402077 -19.310112964870186 -14.904077187772181 0 1 0
14550 750 16 -1.371919 -7.459723860263566 -20.133727939446032 -14.936433001846245 0 1 0
9350 750 10 0.915019 -7.462320020767615 -20.13170213468305 -14.94663313045918 0 1 0
2063 109 7 0.182419 -12.528441429922413 -21.868781774678258 -12.928039351022905 0 1 0
3088 163 7 0.182419 -13.830846865361899 -15.825814759504343 -15.347061870297104 0 0 0
6398 337 7 0.108465 -12.192166786027858 -20.174464558446395 -20.535956375080307 0 1 0
6388 337 4 0.246748 -9.539336098246812 -22.167152011682308 -20.044550062924856 0 1 0
11303 213 14 -2.444943 -12.108999531538228 -17.114065095280026 -23.167804729995424 0 0 0
11134 192 14 -2.444943 -11.91968044193337 -18.632690454137986 -12.415148366303418 0 0 0
3639 192 7 0.182419 -11.752657970200671 -17.5612402207363 -12.774849308025582 0 0 0
5674 299 7 0.182419 -7.111016580130613 -22.813359588228465 -13.374875884371544 0 0 0
1026 54 8 0.08486200000000001 -0.24285360585852445 -20.897077751711652 -16.101721755029576 0 0 0
11300 213 13 -1.907313 -10.693227306966211 -17.003127968767696 -22.96622455961489 0 0 0
759 40 8 0.08486200000000001 -22.968785710424473 -15.413268064644337 -12.880949293184832 1 0 0
6399 337 7 0.108465 -11.475109021593797 -21.546311922017406 -21.48982421176747 0 1 0
3641 192 7 0.182419 -11.938685637538917 -19.245857706159875 -13.32802955203968 0 0 0
4042 213 7 0.108465 -12.50632918439695 -18.117789356069206 -22.795348487051164 0 0 0
6387 337 3 0.232656 -13.44744419303737 -22.334601260508055 -18.40736814670306 0 1 0
5293 279 7 0.182419 -2.7291608013207664 -15.283460504787294 -12.264833216392898 0 0 0
3083 163 4 0.238543 -12.461430078133436 -15.490405900340292 -18.790235736530366 0 0 0
6494 342 7 0.108465 -21.798719322500993 -23.095616187695793 -19.520752201990707 1 0 0
9920 40 14 -2.444943 -23.064888507706996 -16.49287936606909 -12.641602506642654 1 0 0
14547 750 16 -1.371919 -9.202478020679106 -21.081830445158 -13.557591087782818 0 1 0
9347 750 10 0.915019 -9.207048779000145 -21.08077073417758 -13.56160385905169 0 1 0
4035 213 5 1.997624 -10.71246891679135 -16.972435520693622 -22.95600111931111 0 0 0
6454 340 6 2.414929 -2.5534932345099293 -14.228485868754634 -18.317716466654538 0 0 0
11183 198 14 -2.444943 -0.48997428530706344 -15.881853888628354 -22.538244764664693 0 0 0
4041 213 6 2.414929 -12.164185284143269 -17.125568118531024 -23.15789490125794 0 0 0
14549 750 16 -1.371919 -8.390533337447508 -19.25454721879383 -12.871250904427422 0 1 0
9349 750 10 0.915019 -8.38825337315365 -19.26144271767857 -12.87966748193335 0 1 0
4288 226 6 2.414929 -1.6747804337413825 -9.934646798457603 -17.09189446284907 0 0 0
1015 54 1 1.947075 -0.0036654450269253402 -23.006149699203938 -11.97334177909882 0 0 0
4277 226 2 1.882547 -1.9911094595332024 -10.023127978644107 -13.519493783291253 0 0 0
5288 279 5 2.176607 -4.569022427168122 -16.26161803385516 -11.99713877473227 0 0 0
10514 115 12 -2.086039 -23.291893007660903 -15.244241540510512 -17.787206281585746 1 0 0
11572 247 13 -1.907313 -6.138008347235061 -10.58615316530625 -21.28422350296801 0 0 0
3757 198 7 0.108465 -0.26305253876219226 -16.195060960300154 -21.492828882940056 0 0 0
8606 602 9 2.146927 -16.10880884112012 -7.997348582812668 -22.418507872486597 0 0 0
6395 337 7 0.182419 -13.038129989591965 -23.083814118931837 -16.146614751870146 0 1 0
6394 337 7 0.182419 -11.262249803312688 -23.24788617059821 -15.622471045790048 0 1 0
12039 305 14 -2.444943 -7.529728350965403 -15.153231021928468 -17.252225090426744 0 0 0
5789 305 6 2.414929 -7.475002905815124 -15.128406325679219 -17.244592310320044 0 0 0
4291 226 6 2.284667 -2.79312434718328 -9.228628589714202 -17.761569670281837 0 0 0
6492 342 6 2.414929 -22.645286993781024 -23.29749236791687 -20.225569848796983 1 0 0
4283 226 1 1.947075 -0.2522527001442789 -10.104520567970836 -15.044330403434985 0 0 0
11470 234 14 -2.444943 -23.129912715657362 -9.12498047578901 -16.66672182738406 0 0 0
7834 447 10 0.915019 -10.584769236871987 -15.345289203645166 -11.87539345457669 0 0 0
11825 279 11 -2.086039 -6.519575967449192 -16.278240990878842 -13.045612403512584 0 0 0
344 19 2 1.882547 -4.116625367656916 -22.168733303344226 -12.503617796971245 0 0 0
8973 675 10 0.915019 -16.584036827880208 -22.630348352740416 -12.175833244081474 0 0 0
2373 125 8 0.08486200000000001 -7.846468899857907 -20.742230418365157 -18.102235154248007 0 1 0
5286 279 4 0.246748 -7.312715784976614 -16.402883156198417 -13.815316088382398 0 0 0
2370 125 7 0.108465 -7.036480445972451 -19.963132873550983 -20.28092316680124 0 1 0
11830 279 14 -2.444943 -3.209512526286865 -16.219934711759777 -11.85286851731851 0 0 0
9001 681 9 2.146927 -6.145011591707984 -11.797354907804854 -15.868209580213101 0 0 0
10600 125 14 -2.444943 -6.844636536164614 -20.35906471258631 -18.23526444712557 0 1 0
2372 125 6 2.284667 -6.831984812552967 -20.365401025311527 -18.220123924676194 0 1 0
2374 125 8 0.08486200000000001 -6.235488473042125 -20.85443286831971 -17.468627152130793 0 1 0
14789 798 16 -1.371919 -6.779721860808646 -21.251895739532106 -22.5268235191743 0 1 1
9589 798 10 0.915019 -6.774991037648739 -21.250494928612323 -22.525119962777254 0 1 1
2371 125 7 0.108465 -6.592491367638523 -21.716325291993915 -20.073258355710244 0 1 0
2375 125 8 0.08486200000000001 -6.933060085151784 -19.286909630916412 -18.052704896134564 0 1 0
9750 19 14 -2.444943 -4.968889300205284 -19.92569152921891 -13.325724076311186 0 0 0
2369 125 6 2.414929 -6.394148943018113 -20.665251160422528 -19.654351045561313 0 1 0
10599 125 14 -2.444943 -6.363489617691492 -20.65067052113845 -19.659663583168495 0 1 0
2360 125 4 0.246748 -4.5150275031427185 -22.053779395230542 -21.21191062057366 0 1 0
348 19 5 2.176607 -4.641397278635868 -21.31393350391076 -13.435452307600723 0 0 0
2366 125 7 0.182419 -1.9819173538296084 -17.928663104317103 -18.897801904304146 0 1 0
2357 125 1 1.91034 -4.164190319352173 -21.163032786021237 -20.662607426688737 0 1 0
10593 125 11 -2.086039 -4.179554612260638 -21.145298748346704 -20.662047361111217 0 1 0
10594 125 12 -2.086039 -2.9104431880781867 -20.539932845911146 -20.617725314955152 0 1 0
2358 125 2 1.882547 -2.919501142396239 -20.57340511696046 -20.61686559826445 0 1 0
10596 125 13 -1.907313 -5.0106007984919785 -20.362587298042012 -19.828437081130975 0 1 0
13829 606 16 -1.371919 -2.1587776162889014 -18.664339459371632 -16.805859503248566 0 0 0
8629 606 10 0.915019 -2.16537903874778 -18.68276119397715 -16.80256119515426 0 0 0
8627 606 10 0.915019 -2.6832049809009106 -18.420157694790714 -14.685634493697211 0 0 0
13827 606 16 -1.371919 -2.6836334234109103 -18.415928894471737 -14.683822595536713 0 0 0
2362 125 5 2.176607 -3.0969548847809243 -19.392310992804823 -19.935655697563178 0 1 0
10595 125 13 -1.907313 -3.0888859141441785 -19.403001349454176 -19.945020998725038 0 1 0
2359 125 3 0.232656 -4.6957031179114175 -18.330456846151225 -18.987787258771107 0 1 0
2364 125 1 1.947075 -4.332404411417482 -19.21294799116345 -19.43813612879136 0 1 0
10597 125 11 -2.086039 -4.2906197155757795 -19.213053320227566 -19.463638544084898 0 1 0
13826 606 15 -1.319327 -3.1863373814123044 -18.22439855616655 -15.960331072641528 0 0 0
8626 606 9 2.146927 -3.190754449026045 -18.226517916304022 -15.961269956548911 0 0 0
13830 606 16 -1.371919 -4.331402067021099 -18.90692950591411 -16.236194450391423 0 0 0
8630 606 10 0.915019 -4.339389785882879 -18.914323462875185 -16.238653088471228 0 0 0
2363 125 5 1.997624 -5.015274896267766 -20.373811087019597 -19.848240312864775 0 1 0
345 19 3 0.232656 -5.251671186774622 -21.51314183464058 -15.474071354050064 0 0 0
13828 606 16 -1.371919 -3.3662512567845795 -16.831433128410794 -16.108150810669617 0 0 0
8628 606 10 0.915019 -3.365023718453198 -16.83006409135548 -16.109009078242828 0 0 0
10598 125 14 -2.444943 -2.068239753172044 -18.41725859996658 -19.941404158478175 0 1 0
2365 125 6 2.057063 -2.0695253875056707 -18.40791624946462 -19.92493204126286 0 1 0
2367 125 7 0.182419 -1.0781760554022597 -18.826244763964237 -20.199812847861555 0 1 0
2368 125 7 0.182419 -2.330725176743943 -17.616038944806487 -20.690559355207533 0 1 0
2361 125 4 0.238543 -1.982427689315017 -20.789478862811137 -21.094700355485163 0 1 0
350 19 1 1.947075 -4.688221266076027 -21.924679158969653 -14.65667378276226 0 0 0
9749 19 11 -2.086039 -4.685016100919128 -21.90852757068497 -14.639804771799353 0 0 0
9747 19 13 -1.907313 -4.632715003420177 -21.35732025961046 -13.422337165366274 0 0 0
5284 279 2 1.882547 -5.17668218447459 -16.03611946232923 -13.199077595219444 0 0 0
11826 279 12 -2.086039 -5.160854493248333 -16.03440123522528 -13.193492559104035 0 0 0
5287 279 4 0.238543 -4.627701914816818 -15.99950053592205 -14.092110742165458 0 0 0
14355 711 16 -1.371919 -3.924987245858521 -15.620652436147878 -20.408517814401627 0 0 0
9155 711 10 0.915019 -3.9257163787341405 -15.620889071941994 -20.409070364428096 0 0 0
351 19 6 2.057063 -4.9791405632741395 -19.880441448127947 -13.32089614292114 0 0 0
14351 711 15 -1.319327 -5.325038864639364 -15.747297433350303 -20.760811904241034 0 0 0
9151 711 9 2.146927 -5.324028824457688 -15.745416534548989 -20.753848912355938 0 0 0
14354 711 16 -1.371919 -5.930535445114938 -16.919956785099714 -20.21789110434719 0 0 0
9154 711 10 0.915019 -5.930678686840029 -16.92388963986358 -20.220553328411697 0 0 0
5795 305 8 0.08486200000000001 -6.108192332058998 -16.44984884853192 -15.988048281243628 0 0 0
1014 54 5 1.997624 -0.2421970590742042 -21.972330121309977 -12.822937888579983 0 0 0
5792 305 6 2.284667 -6.112381624855317 -15.836245898309059 -16.923819009989014 0 0 0
12040 305 14 -2.444943 -6.13141815605033 -15.823427717558154 -16.918134331954985 0 0 0
5793 305 8 0.08486200000000001 -5.882644673731971 -16.55473883073684 -17.733679305263244 0 0 0
3762 198 8 0.08486200000000001 -1.6473410671518316 -14.157453897355749 -23.267530426019313 0 0 0
5283 279 1 1.91034 -6.50882889658752 -16.28870611040894 -13.04156998828378 0 0 0
5291 279 6 2.057063 -3.145193864280966 -16.232354961360617 -11.842171396058587 0 0 0
5794 305 8 0.08486200000000001 -5.250892033951985 -15.203637210733136 -16.94159077211565 0 0 0
12319 340 14 -2.444943 -2.5231979512942004 -14.223212696243317 -18.28643602474658 0 0 0
9746 19 12 -2.086039 -4.118548797214103 -22.166644360326053 -12.507478176163108 0 0 0
6455 340 7 0.108465 -1.9472965083105613 -14.538424142175614 -19.185733190273716 0 0 0
9207 722 10 0.915019 -0.45745050316392977 -11.839954206308645 -19.40566612449345 0 0 0
6488 342 6 2.057063 -23.194089657902325 -18.40355797531207 -20.903445864577552 1 0 0
4690 247 6 2.284667 -4.492163599011452 -11.424032460118251 -22.955380493575444 0 0 0
12334 342 14 -2.444943 -23.18632009753396 -18.44331275895079 -20.91163666375607 1 0 0
11576 247 14 -2.444943 -4.47558766612466 -11.431018742798349 -22.94007852987889 0 0 0
6445 340 4 0.246748 -2.9832860950597464 -13.21628174214534 -15.617002077158688 0 0 0
1024 54 8 0.08486200000000001 -0.9047781699915802 -20.072521779353394 -14.674250298048877 0 0 0
14173 675 16 -1.371919 -16.576260890039446 -22.635631707325487 -12.182270636366551 0 0 0
2062 109 7 0.182419 -14.204442256374126 -21.667425200359403 -12.420420592742136 0 1 0
11421 228 11 -2.086039 -21.770150736553667 -8.573979777428411 -20.770935318582982 1 0 1
4034 213 5 2.176607 -8.659598464516904 -17.25852320360888 -23.100508359064623 0 0 0
4038 213 7 0.182419 -7.140700890319497 -18.632128812584327 -22.687636012828776 0 0 0
1512 80 7 0.182419 -20.384928389780104 -11.246137919855943 -22.044792533720564 0 0 1
11827 279 13 -1.907313 -4.613242625329086 -16.259984907502083 -12.006421667700794 0 0 0
3753 198 7 0.182419 -4.887198622709594 -18.072890719495867 -23.084681878889064 0 0 0
1510 80 6 2.057063 -20.560136271085753 -11.570061355761045 -23.085622708843907 0 0 1
7212 380 7 0.182419 -0.09406256000597324 -8.68471330723782 -19.285381925338214 0 0 0
4130 218 5 1.997624 -14.540188819776466 -7.782904230473852 -18.806784716508744 0 0 1
13806 602 15 -1.319327 -16.112092236840727 -7.997318122211574 -22.418898610120756 0 0 0
4323 228 7 0.182419 -22.4452445716889 -11.033311094286244 -20.842119552474735 1 0 1
4285 226 7 0.182419 -0.13470971786232866 -10.844869882948949 -11.753099641157949 0 0 0
11339 218 13 -1.907313 -12.414915650711778 -8.210885943038747 -18.89366580764681 0 0 1
13273 495 16 -1.371919 -22.757194876543807 -20.116193997043947 -17.43373896461553 1 0 0
11136 192 14 -2.444943 -17.2638676667127 -19.01793953543353 -12.386725754094078 0 0 0
10238 80 14 -2.444943 -20.5450818916541 -11.525961372303412 -23.103392786797766 0 0 1
11573 247 11 -2.086039 -6.1096414279240285 -9.22589026482353 -21.417072566737417 0 0 0
354 19 7 0.182419 -5.467673578599069 -19.63026908026441 -14.28013715972034 0 0 0
13034 447 16 -1.371919 -10.58932927108435 -15.347455867322559 -11.884384478218635 0 0 0
10029 54 11 -2.086039 -0.016765915418307742 -22.989696702552262 -11.937699166732513 0 0 0
353 19 7 0.182419 -4.2175812250503135 -19.140215438934923 -13.182525013952297 0 0 0
4413 233 4 0.238543 -2.9706013734686856 -12.853101357032555 -11.812708162133076 0 0 0