LAMMPS data file

14800 atoms
14400 bonds
14400 angles
25200 dihedrals
2000 impropers
18 atom types
19 bond types
20 angle types
29 dihedral types
5 improper types
-31.958000 31.958000 xlo xhi
-31.958000 31.958000 ylo yhi
-31.958000 31.958000 zlo zhi

Masses

   1   11.610  # cc DC
   2   11.610  # cd DC
   3    1.008  # H5
   4    1.008  # H4
   5   13.610  # na DC
   6   11.610  # c3 DC
   7    1.008  # H1
   8    1.008  # Hc
   9   13.610  # N3A DC
  10   11.610  # CZA DC
  11   13.610  # NZA DC
  12    0.400  # cc DP
  13    0.400  # cd DP
  14    0.400  # na DP
  15    0.400  # c3 DP
  16    0.400  # N3A DP
  17    0.400  # CZA DP
  18    0.400  # NZA DP

Bond Coeffs

1 503.998551439  1.371  # harmonic C2M cc cd
2 350.099568637  1.083  # harmonic C2M H4 cc
3 438.798401323  1.371  # harmonic C2M cc na
4 350.099568637  1.083  # harmonic C2M H4 cd
5 438.798401323  1.371  # harmonic C2M cd na
6 355.999576126  1.079  # harmonic C2M H5 cc
7 334.698740737  1.456  # harmonic C2M c3 na
8 335.899011712  1.093  # harmonic C2M H1 c3
9 303.100216294  1.535  # harmonic C2M c3 c3
10 337.29999025  1.092  # harmonic C2M Hc c3
11 803.29923445  1.199  # harmonic DCA CZA N3A
12 1014.49923306  1.138  # harmonic DCA CZA NZA
  13   500.000000     0.000000  # cc DC-DP
  14   500.000000     0.000000  # cd DC-DP
  15   500.000000     0.000000  # na DC-DP
  16   500.000000     0.000000  # c3 DC-DP
  17   500.000000     0.000000  # N3A DC-DP
  18   500.000000     0.000000  # CZA DC-DP
  19   500.000000     0.000000  # NZA DC-DP

Angle Coeffs

1 47.1901238892  129.11  # harmonic C2M H4 cd cc
2 72.910500084  109.42  # harmonic C2M cc cd na
3 68.9400672912  109.90  # harmonic C2M cc na cc
4 62.5591565316  125.09  # harmonic C2M c3 na cc
5 47.1901238892  129.11  # harmonic C2M H4 cc cd
6 72.910500084  109.42  # harmonic C2M cd cc na
7 63.8806469256  128.01  # harmonic C2M cc na cd
8 62.5591565316  125.09  # harmonic C2M c3 na cd
9 49.759578144  122.10  # harmonic C2M H5 cc na
10 50.2206093792  119.66  # harmonic C2M H4 cc na
11 50.2206093792  119.66  # harmonic C2M H4 cd na
12 73.6497398232  109.33  # harmonic C2M na cc na
13 49.9006695996  109.45  # harmonic C2M H1 c3 na
14 65.7307334772  112.81  # harmonic C2M c3 c3 na
15 39.1797061776  109.55  # harmonic C2M H1 c3 H1
16 46.3694088024  110.05  # harmonic C2M Hc c3 c3
17 46.3594727844  110.07  # harmonic C2M H1 c3 c3
18 39.4300938312  108.35  # harmonic C2M Hc c3 Hc
19 76.696122942  180.00  # harmonic DCA N3A CZA NZA
20 74.410838802  121.10  # harmonic DCA CZA N3A CZA

Dihedral Coeffs

1 4.00000238237  2 180 0.0  # charmm C2M H4 cc cd H4
2 4.00000238237  2 180 0.0  # charmm C2M na cc cd H4
3 4.00000238237  2 180 0.0  # charmm C2M H4 cc cd na
4 4.00000238237  2 180 0.0  # charmm C2M na cc cd na
5 1.69999306369  2 180 0.0  # charmm C2M cd cc na cc
6 1.69999306369  2 180 0.0  # charmm C2M H4 cc na cc
7 1.69999306369  2 180 0.0  # charmm C2M cd cc na c3
8 1.69999306369  2 180 0.0  # charmm C2M H4 cc na c3
9 1.69999306369  2 180 0.0  # charmm C2M cc cd na cc
10 1.69999306369  2 180 0.0  # charmm C2M H4 cd na cc
11 1.69999306369  2 180 0.0  # charmm C2M cc cd na c3
12 1.69999306369  2 180 0.0  # charmm C2M H4 cd na c3
13 1.69999306369  2 180 0.0  # charmm C2M H5 cc na cd
14 1.69999306369  2 180 0.0  # charmm C2M H5 cc na c3
15 1.69999306369  2 180 0.0  # charmm C2M na cc na cd
16 1.69999306369  2 180 0.0  # charmm C2M na cc na c3
17 0.165514187844  3 0 0.0  # charmm C2M H1 c3 na cd
18 -0.055900037268  2 180 0.0  # charmm C2M H1 c3 na cc
19 0.194825440944  3 0 0.0  # charmm C2M H1 c3 na cc
20 0.055303876188  4 180 0.0  # charmm C2M H1 c3 na cc
21 1.69999306369  2 180 0.0  # charmm C2M H5 cc na cc
22 1.69999306369  2 180 0.0  # charmm C2M na cc na cc
23 -0.05345577684  1 0 0.0  # charmm C2M c3 c3 na cc
24 0.079766352504  2 180 0.0  # charmm C2M c3 c3 na cc
25 0.192917725488  3 0 0.0  # charmm C2M c3 c3 na cc
26 0.047831990652  4 180 0.0  # charmm C2M c3 c3 na cc
27 0.1559954826  3 0 0.0  # charmm C2M Hc c3 c3 na
28 0.1559954826  3 0 0.0  # charmm C2M H1 c3 c3 Hc
29 0.0  2 180 0.0  # charmm DCA NZA CZA N3A CZA

Improper Coeffs

1 1.09999668074 -1  2  # cvff C2M cd H4 cc na
2 1.09999668074 -1  2  # cvff C2M cc H4 cd na
3 1.09999668074 -1  2  # cvff C2M c3 cc na cd
4 1.09999668074 -1  2  # cvff C2M c3 cc na cc
5 1.09999668074 -1  2  # cvff C2M H5 na cc na

Atoms

      1       1    1   1.910340  8.596000e+00  1.904000e+01 -7.648000e+00  # cc C1 C2M 1 DC
      2       1    2   1.882547  9.088000e+00  1.783600e+01 -8.045000e+00  # cd C2 C2M 1 DC
      3       1    3   0.232656  8.732000e+00  1.939500e+01 -1.087100e+01  # H5 H1 C2M 1
      4       1    4   0.246748  8.366000e+00  1.941200e+01 -6.663000e+00  # H4 H2 C2M 1
      5       1    4   0.238543  9.364000e+00  1.696600e+01 -7.473000e+00  # H4 H3 C2M 1
      6       1    5   2.176607  9.192000e+00  1.787400e+01 -9.423000e+00  # na N1 C2M 1 DC
      7       1    5   1.997624  8.401000e+00  1.980000e+01 -8.786000e+00  # na N2 C2M 1 DC
      8       1    1   1.947075  8.771000e+00  1.907200e+01 -9.843000e+00  # cc C3 C2M 1 DC
      9       1    6   2.057063  9.672000e+00  1.677800e+01 -1.027900e+01  # c3 C4 C2M 1 DC
     10       1    7   0.182419  9.025000e+00  1.591000e+01 -1.015500e+01  # H1 H4 C2M 1
     11       1    7   0.182419  9.647000e+00  1.710300e+01 -1.131600e+01  # H1 H5 C2M 1
     12       1    7   0.182419  1.069500e+01  1.652500e+01 -1.000200e+01  # H1 H6 C2M 1
     13       1    6   2.414929  7.906000e+00  2.119800e+01 -8.826000e+00  # c3 C5 C2M 1 DC
     14       1    7   0.108465  7.606000e+00  2.139200e+01 -9.856000e+00  # H1 H7 C2M 1
     15       1    7   0.108465  7.006000e+00  2.123000e+01 -8.210000e+00  # H1 H8 C2M 1
     16       1    6   2.284667  8.952000e+00  2.220100e+01 -8.349000e+00  # c3 C6 C2M 1 DC
     17       1    8   0.084862  9.243000e+00  2.201800e+01 -7.312000e+00  # Hc H9 C2M 1
     18       1    8   0.084862  9.846000e+00  2.217100e+01 -8.975000e+00  # Hc H10 C2M 1
     19       1    8   0.084862  8.530000e+00  2.320600e+01 -8.405000e+00  # Hc H11 C2M 1
     20       2    1   1.910340  2.326000e+00 -1.944000e+00  1.585100e+01  # cc C1 C2M 2 DC
     21       2    2   1.882547  1.773000e+00 -3.043000e+00  1.643200e+01  # cd C2 C2M 2 DC
     22       2    3   0.232656  4.691000e+00 -4.143000e+00  1.552900e+01  # H5 H1 C2M 2
     23       2    4   0.246748  1.928000e+00 -9.540000e-01  1.570500e+01  # H4 H2 C2M 2
     24       2    4   0.238543  8.060000e-01 -3.187000e+00  1.688400e+01  # H4 H3 C2M 2
     25       2    5   2.176607  2.707000e+00 -4.058000e+00  1.635300e+01  # na N1 C2M 2 DC
     26       2    5   1.997624  3.590000e+00 -2.301000e+00  1.542000e+01  # na N2 C2M 2 DC
     27       2    1   1.947075  3.795000e+00 -3.582000e+00  1.573800e+01  # cc C3 C2M 2 DC
     28       2    6   2.057063  2.527000e+00 -5.431000e+00  1.685100e+01  # c3 C4 C2M 2 DC
     29       2    7   0.182419  1.688000e+00 -5.897000e+00  1.633700e+01  # H1 H4 C2M 2
     30       2    7   0.182419  3.433000e+00 -6.000000e+00  1.665400e+01  # H1 H5 C2M 2
     31       2    7   0.182419  2.342000e+00 -5.405000e+00  1.792400e+01  # H1 H6 C2M 2
     32       2    6   2.414929  4.569000e+00 -1.405000e+00  1.475600e+01  # c3 C5 C2M 2 DC
     33       2    7   0.108465  5.324000e+00 -2.049000e+00  1.430500e+01  # H1 H7 C2M 2
     34       2    7   0.108465  4.037000e+00 -9.050000e-01  1.394500e+01  # H1 H8 C2M 2
     35       2    6   2.284667  5.193000e+00 -4.040000e-01  1.572300e+01  # c3 C6 C2M 2 DC
     36       2    8   0.084862  4.441000e+00  2.540000e-01  1.616400e+01  # Hc H9 C2M 2
     37       2    8   0.084862  5.732000e+00 -9.090000e-01  1.652700e+01  # Hc H10 C2M 2
     38       2    8   0.084862  5.902000e+00  2.210000e-01  1.517800e+01  # Hc H11 C2M 2
     39       3    1   1.910340  2.550200e+01  1.301700e+01 -2.593000e+00  # cc C1 C2M 3 DC
     40       3    2   1.882547  2.504600e+01  1.411200e+01 -3.259000e+00  # cd C2 C2M 3 DC
     41       3    3   0.232656  2.715600e+01  1.285200e+01 -5.381000e+00  # H5 H1 C2M 3
     42       3    4   0.246748  2.525600e+01  1.263900e+01 -1.615000e+00  # H4 H2 C2M 3
     43       3    4   0.238543  2.433100e+01  1.486400e+01 -2.969000e+00  # H4 H3 C2M 3
     44       3    5   2.176607  2.569100e+01  1.414300e+01 -4.481000e+00  # na N1 C2M 3 DC
     45       3    5   1.997624  2.642300e+01  1.239200e+01 -3.414000e+00  # na N2 C2M 3 DC
     46       3    1   1.947075  2.651600e+01  1.309300e+01 -4.548000e+00  # cc C3 C2M 3 DC
     47       3    6   2.057063  2.550700e+01  1.516500e+01 -5.523000e+00  # c3 C4 C2M 3 DC
     48       3    7   0.182419  2.578900e+01  1.614100e+01 -5.129000e+00  # H1 H4 C2M 3
     49       3    7   0.182419  2.614200e+01  1.492100e+01 -6.372000e+00  # H1 H5 C2M 3
     50       3    7   0.182419  2.446500e+01  1.517500e+01 -5.840000e+00  # H1 H6 C2M 3
     51       3    6   2.414929  2.715300e+01  1.113800e+01 -3.107000e+00  # c3 C5 C2M 3 DC
     52       3    7   0.108465  2.798200e+01  1.107900e+01 -3.813000e+00  # H1 H7 C2M 3
     53       3    7   0.108465  2.757900e+01  1.125900e+01 -2.109000e+00  # H1 H8 C2M 3
     54       3    6   2.284667  2.625700e+01  9.906000e+00 -3.193000e+00  # c3 C6 C2M 3 DC
     55       3    8   0.084862  2.543500e+01  9.954000e+00 -2.476000e+00  # Hc H9 C2M 3
     56       3    8   0.084862  2.584200e+01  9.785000e+00 -4.196000e+00  # Hc H10 C2M 3
     57       3    8   0.084862  2.685000e+01  9.020000e+00 -2.961000e+00  # Hc H11 C2M 3
     58       4    1   1.910340  2.132800e+01  2.446800e+01  1.088400e+01  # cc C1 C2M 4 DC
     59       4    2   1.882547  2.194800e+01  2.567400e+01  1.098900e+01  # cd C2 C2M 4 DC
     60       4    3   0.232656  2.230500e+01  2.446000e+01  1.397900e+01  # H5 H1 C2M 4
     61       4    4   0.246748  2.083300e+01  2.400500e+01  1.004700e+01  # H4 H2 C2M 4
     62       4    4   0.238543  2.209000e+01  2.645700e+01  1.026200e+01  # H4 H3 C2M 4
     63       4    5   2.176607  2.241200e+01  2.578100e+01  1.228600e+01  # na N1 C2M 4 DC
     64       4    5   1.997624  2.141900e+01  2.385200e+01  1.211800e+01  # na N2 C2M 4 DC
     65       4    1   1.947075  2.207900e+01  2.466600e+01  1.294500e+01  # cc C3 C2M 4 DC
     66       4    6   2.057063  2.313900e+01  2.693200e+01  1.284600e+01  # c3 C4 C2M 4 DC
     67       4    7   0.182419  2.251100e+01  2.782000e+01  1.278900e+01  # H1 H4 C2M 4
     68       4    7   0.182419  2.338000e+01  2.672500e+01  1.388600e+01  # H1 H5 C2M 4
     69       4    7   0.182419  2.405900e+01  2.708600e+01  1.228400e+01  # H1 H6 C2M 4
     70       4    6   2.414929  2.090600e+01  2.250100e+01  1.245700e+01  # c3 C5 C2M 4 DC
     71       4    7   0.108465  2.088400e+01  2.244000e+01  1.354600e+01  # H1 H7 C2M 4
     72       4    7   0.108465  1.987400e+01  2.246000e+01  1.210500e+01  # H1 H8 C2M 4
     73       4    6   2.284667  2.175400e+01  2.138700e+01  1.185100e+01  # c3 C6 C2M 4 DC
     74       4    8   0.084862  2.176400e+01  2.143500e+01  1.076000e+01  # Hc H9 C2M 4
     75       4    8   0.084862  2.278300e+01  2.142700e+01  1.221500e+01  # Hc H10 C2M 4
     76       4    8   0.084862  2.133000e+01  2.042300e+01  1.213800e+01  # Hc H11 C2M 4
     77       5    1   1.910340  3.638000e+00 -2.834000e+00 -4.154000e+00  # cc C1 C2M 5 DC
     78       5    2   1.882547  4.484000e+00 -1.983000e+00 -4.796000e+00  # cd C2 C2M 5 DC
     79       5    3   0.232656  6.252000e+00 -2.897000e+00 -2.231000e+00  # H5 H1 C2M 5
     80       5    4   0.246748  2.636000e+00 -3.143000e+00 -4.399000e+00  # H4 H2 C2M 5
     81       5    4   0.238543  4.354000e+00 -1.413000e+00 -5.700000e+00  # H4 H3 C2M 5
     82       5    5   2.176607  5.649000e+00 -1.932000e+00 -4.056000e+00  # na N1 C2M 5 DC
     83       5    5   1.997624  4.296000e+00 -3.292000e+00 -3.028000e+00  # na N2 C2M 5 DC
     84       5    1   1.947075  5.509000e+00 -2.733000e+00 -2.994000e+00  # cc C3 C2M 5 DC
     85       5    6   2.057063  6.837000e+00 -1.125000e+00 -4.377000e+00  # c3 C4 C2M 5 DC
     86       5    7   0.182419  6.567000e+00 -7.000000e-02 -4.389000e+00  # H1 H4 C2M 5
     87       5    7   0.182419  7.596000e+00 -1.296000e+00 -3.618000e+00  # H1 H5 C2M 5
     88       5    7   0.182419  7.224000e+00 -1.424000e+00 -5.351000e+00  # H1 H6 C2M 5
     89       5    6   2.414929  3.763000e+00 -4.269000e+00 -2.045000e+00  # c3 C5 C2M 5 DC
     90       5    7   0.108465  4.394000e+00 -4.194000e+00 -1.159000e+00  # H1 H7 C2M 5
     91       5    7   0.108465  2.766000e+00 -3.923000e+00 -1.768000e+00  # H1 H8 C2M 5
     92       5    6   2.284667  3.735000e+00 -5.692000e+00 -2.594000e+00  # c3 C6 C2M 5 DC
     93       5    8   0.084862  3.091000e+00 -5.773000e+00 -3.473000e+00  # Hc H9 C2M 5
     94       5    8   0.084862  4.737000e+00 -6.036000e+00 -2.860000e+00  # Hc H10 C2M 5
     95       5    8   0.084862  3.339000e+00 -6.359000e+00 -1.828000e+00  # Hc H11 C2M 5
     96       6    1   1.910340  2.173000e+00 -8.905000e+00 -4.699000e+00  # cc C1 C2M 6 DC
     97       6    2   1.882547  1.882000e+00 -8.763000e+00 -3.377000e+00  # cd C2 C2M 6 DC
     98       6    3   0.232656  5.650000e-01 -1.165100e+01 -4.062000e+00  # H5 H1 C2M 6
     99       6    4   0.246748  2.696000e+00 -8.249000e+00 -5.374000e+00  # H4 H2 C2M 6
    100       6    4   0.238543  2.102000e+00 -7.963000e+00 -2.691000e+00  # H4 H3 C2M 6
    101       6    5   2.176607  1.187000e+00 -9.894000e+00 -2.991000e+00  # na N1 C2M 6 DC
    102       6    5   1.997624  1.652000e+00 -1.011800e+01 -5.106000e+00  # na N2 C2M 6 DC
    103       6    1   1.947075  1.063000e+00 -1.069500e+01 -4.054000e+00  # cc C3 C2M 6 DC
    104       6    6   2.057063  6.650000e-01 -1.016100e+01 -1.641000e+00  # c3 C4 C2M 6 DC
    105       6    7   0.182419 -5.300000e-02 -9.388000e+00 -1.370000e+00  # H1 H4 C2M 6
    106       6    7   0.182419  1.710000e-01 -1.113000e+01 -1.640000e+00  # H1 H5 C2M 6
    107       6    7   0.182419  1.490000e+00 -1.017300e+01 -9.300000e-01  # H1 H6 C2M 6
    108       6    6   2.414929  1.761000e+00 -1.070100e+01 -6.466000e+00  # c3 C5 C2M 6 DC
    109       6    7   0.108465  1.021000e+00 -1.150000e+01 -6.523000e+00  # H1 H7 C2M 6
    110       6    7   0.108465  1.456000e+00 -9.921000e+00 -7.167000e+00  # H1 H8 C2M 6
    111       6    6   2.284667  3.165000e+00 -1.121500e+01 -6.769000e+00  # c3 C6 C2M 6 DC
    112       6    8   0.084862  3.905000e+00 -1.041300e+01 -6.729000e+00  # Hc H9 C2M 6
    113       6    8   0.084862  3.460000e+00 -1.200100e+01 -6.072000e+00  # Hc H10 C2M 6
    114       6    8   0.084862  3.179000e+00 -1.163200e+01 -7.778000e+00  # Hc H11 C2M 6
    115       7    1   1.910340 -5.737000e+00  4.897000e+00  1.616300e+01  # cc C1 C2M 7 DC
    116       7    2   1.882547 -5.029000e+00  3.809000e+00  1.657100e+01  # cd C2 C2M 7 DC
    117       7    3   0.232656 -3.849000e+00  6.151000e+00  1.848600e+01  # H5 H1 C2M 7
    118       7    4   0.246748 -6.494000e+00  4.995000e+00  1.540400e+01  # H4 H2 C2M 7
    119       7    4   0.238543 -5.053000e+00  2.788000e+00  1.623100e+01  # H4 H3 C2M 7
    120       7    5   2.176607 -4.179000e+00  4.231000e+00  1.757500e+01  # na N1 C2M 7 DC
    121       7    5   1.997624 -5.311000e+00  5.972000e+00  1.692100e+01  # na N2 C2M 7 DC
    122       7    1   1.947075 -4.371000e+00  5.541000e+00  1.776700e+01  # cc C3 C2M 7 DC
    123       7    6   2.057063 -3.219000e+00  3.384000e+00  1.830100e+01  # c3 C4 C2M 7 DC
    124       7    7   0.182419 -2.499000e+00  2.967000e+00  1.759800e+01  # H1 H4 C2M 7
    125       7    7   0.182419 -2.697000e+00  3.991000e+00  1.903600e+01  # H1 H5 C2M 7
    126       7    7   0.182419 -3.756000e+00  2.582000e+00  1.880800e+01  # H1 H6 C2M 7
    127       7    6   2.414929 -5.835000e+00  7.358000e+00  1.684000e+01  # c3 C5 C2M 7 DC
    128       7    7   0.108465 -5.111000e+00  7.994000e+00  1.734900e+01  # H1 H7 C2M 7
    129       7    7   0.108465 -5.829000e+00  7.633000e+00  1.578400e+01  # H1 H8 C2M 7
    130       7    6   2.284667 -7.226000e+00  7.492000e+00  1.745100e+01  # c3 C6 C2M 7 DC
    131       7    8   0.084862 -7.957000e+00  6.867000e+00  1.693300e+01  # Hc H9 C2M 7
    132       7    8   0.084862 -7.223000e+00  7.224000e+00  1.851000e+01  # Hc H10 C2M 7
    133       7    8   0.084862 -7.553000e+00  8.530000e+00  1.736400e+01  # Hc H11 C2M 7
    134       8    1   1.910340 -1.810900e+01  1.441600e+01 -1.088800e+01  # cc C1 C2M 8 DC
    135       8    2   1.882547 -1.683400e+01  1.439700e+01 -1.136400e+01  # cd C2 C2M 8 DC
    136       8    3   0.232656 -1.854900e+01  1.347100e+01 -1.396100e+01  # H5 H1 C2M 8
    137       8    4   0.246748 -1.848700e+01  1.466300e+01 -9.910000e+00  # H4 H2 C2M 8
    138       8    4   0.238543 -1.589900e+01  1.462100e+01 -1.087900e+01  # H4 H3 C2M 8
    139       8    5   2.176607 -1.690100e+01  1.400300e+01 -1.268700e+01  # na N1 C2M 8 DC
    140       8    5   1.997624 -1.894000e+01  1.403200e+01 -1.192400e+01  # na N2 C2M 8 DC
    141       8    1   1.947075 -1.818400e+01  1.379000e+01 -1.299900e+01  # cc C3 C2M 8 DC
    142       8    6   2.057063 -1.575300e+01  1.383700e+01 -1.359300e+01  # c3 C4 C2M 8 DC
    143       8    7   0.182419 -1.508500e+01  1.307400e+01 -1.319500e+01  # H1 H4 C2M 8
    144       8    7   0.182419 -1.611700e+01  1.352600e+01 -1.457000e+01  # H1 H5 C2M 8
    145       8    7   0.182419 -1.522600e+01  1.478600e+01 -1.368700e+01  # H1 H6 C2M 8
    146       8    6   2.414929 -2.042000e+01  1.394200e+01 -1.186600e+01  # c3 C5 C2M 8 DC
    147       8    7   0.108465 -2.073000e+01  1.335400e+01 -1.273000e+01  # H1 H7 C2M 8
    148       8    7   0.108465 -2.066400e+01  1.336600e+01 -1.097100e+01  # H1 H8 C2M 8
    149       8    6   2.284667 -2.108700e+01  1.531400e+01 -1.185400e+01  # c3 C6 C2M 8 DC
    150       8    8   0.084862 -2.079100e+01  1.589900e+01 -1.098100e+01  # Hc H9 C2M 8
    151       8    8   0.084862 -2.084700e+01  1.588100e+01 -1.275500e+01  # Hc H10 C2M 8
    152       8    8   0.084862 -2.216900e+01  1.518100e+01 -1.181400e+01  # Hc H11 C2M 8
    153       9    1   1.910340  1.784300e+01  2.675700e+01 -1.953000e+00  # cc C1 C2M 9 DC
    154       9    2   1.882547  1.867100e+01  2.610500e+01 -1.092000e+00  # cd C2 C2M 9 DC
    155       9    3   0.232656  2.070100e+01  2.817200e+01 -2.558000e+00  # H5 H1 C2M 9
    156       9    4   0.246748  1.678800e+01  2.664100e+01 -2.133000e+00  # H4 H2 C2M 9
    157       9    4   0.238543  1.847100e+01  2.531600e+01 -3.870000e-01  # H4 H3 C2M 9
    158       9    5   2.176607  1.993500e+01  2.663500e+01 -1.264000e+00  # na N1 C2M 9 DC
    159       9    5   1.997624  1.861100e+01  2.767600e+01 -2.643000e+00  # na N2 C2M 9 DC
    160       9    1   1.947075  1.987000e+01  2.758300e+01 -2.206000e+00  # cc C3 C2M 9 DC
    161       9    6   2.057063  2.114700e+01  2.621900e+01 -5.400000e-01  # c3 C4 C2M 9 DC
    162       9    7   0.182419  2.134700e+01  2.516700e+01 -7.420000e-01  # H1 H4 C2M 9
    163       9    7   0.182419  2.198700e+01  2.681900e+01 -8.830000e-01  # H1 H5 C2M 9
    164       9    7   0.182419  2.100200e+01  2.637500e+01  5.280000e-01  # H1 H6 C2M 9
    165       9    6   2.414929  1.811700e+01  2.863200e+01 -3.665000e+00  # c3 C5 C2M 9 DC
    166       9    7   0.108465  1.899500e+01  2.899800e+01 -4.199000e+00  # H1 H7 C2M 9
    167       9    7   0.108465  1.752000e+01  2.805400e+01 -4.373000e+00  # H1 H8 C2M 9
    168       9    6   2.284667  1.731600e+01  2.977700e+01 -3.053000e+00  # c3 C6 C2M 9 DC
    169       9    8   0.084862  1.642800e+01  2.941400e+01 -2.532000e+00  # Hc H9 C2M 9
    170       9    8   0.084862  1.792100e+01  3.035700e+01 -2.354000e+00  # Hc H10 C2M 9
    171       9    8   0.084862  1.698500e+01  3.044400e+01 -3.851000e+00  # Hc H11 C2M 9
    172      10    1   1.910340  2.386900e+01  1.821300e+01  1.711000e+00  # cc C1 C2M 10 DC
    173      10    2   1.882547  2.444400e+01  1.933400e+01  1.196000e+00  # cd C2 C2M 10 DC
    174      10    3   0.232656  2.205400e+01  2.056500e+01  3.018000e+00  # H5 H1 C2M 10
    175      10    4   0.246748  2.411300e+01  1.717400e+01  1.570000e+00  # H4 H2 C2M 10
    176      10    4   0.238543  2.527600e+01  1.945100e+01  5.230000e-01  # H4 H3 C2M 10
    177      10    5   2.176607  2.374200e+01  2.041600e+01  1.694000e+00  # na N1 C2M 10 DC
    178      10    5   1.997624  2.282200e+01  1.862200e+01  2.516000e+00  # na N2 C2M 10 DC
    179      10    1   1.947075  2.276900e+01  1.995600e+01  2.488000e+00  # cc C3 C2M 10 DC
    180      10    6   2.057063  2.401400e+01  2.182900e+01  1.390000e+00  # c3 C4 C2M 10 DC
    181      10    7   0.182419  2.390200e+01  2.199900e+01  3.200000e-01  # H1 H4 C2M 10
    182      10    7   0.182419  2.330300e+01  2.245000e+01  1.931000e+00  # H1 H5 C2M 10
    183      10    7   0.182419  2.502600e+01  2.207800e+01  1.705000e+00  # H1 H6 C2M 10
    184      10    6   2.414929  2.193400e+01  1.773400e+01  3.307000e+00  # c3 C5 C2M 10 DC
    185      10    7   0.108465  2.106700e+01  1.833200e+01  3.588000e+00  # H1 H7 C2M 10
    186      10    7   0.108465  2.158800e+01  1.695200e+01  2.629000e+00  # H1 H8 C2M 10
    187      10    6   2.284667  2.263300e+01  1.715200e+01  4.531000e+00  # c3 C6 C2M 10 DC
    188      10    8   0.084862  2.349200e+01  1.653900e+01  4.252000e+00  # Hc H9 C2M 10
    189      10    8   0.084862  2.296800e+01  1.793900e+01  5.210000e+00  # Hc H10 C2M 10
    190      10    8   0.084862  2.193000e+01  1.651400e+01  5.070000e+00  # Hc H11 C2M 10
    191      11    1   1.910340 -1.430800e+01 -6.225000e+00 -9.203000e+00  # cc C1 C2M 11 DC
    192      11    2   1.882547 -1.499700e+01 -6.111000e+00 -8.035000e+00  # cd C2 C2M 11 DC
    193      11    3   0.232656 -1.624900e+01 -3.695000e+00 -9.807000e+00  # H5 H1 C2M 11
    194      11    4   0.246748 -1.353800e+01 -6.918000e+00 -9.496000e+00  # H4 H2 C2M 11
    195      11    4   0.238543 -1.493700e+01 -6.683000e+00 -7.125000e+00  # H4 H3 C2M 11
    196      11    5   2.176607 -1.586900e+01 -5.049000e+00 -8.180000e+00  # na N1 C2M 11 DC
    197      11    5   1.997624 -1.476400e+01 -5.230000e+00 -1.004700e+01  # na N2 C2M 11 DC
    198      11    1   1.947075 -1.570800e+01 -4.536000e+00 -9.405000e+00  # cc C3 C2M 11 DC
    199      11    6   2.057063 -1.680600e+01 -4.560000e+00 -7.156000e+00  # c3 C4 C2M 11 DC
    200      11    7   0.182419 -1.624700e+01 -4.237000e+00 -6.278000e+00  # H1 H4 C2M 11
    201      11    7   0.182419 -1.736400e+01 -3.719000e+00 -7.560000e+00  # H1 H5 C2M 11
    202      11    7   0.182419 -1.749700e+01 -5.359000e+00 -6.888000e+00  # H1 H6 C2M 11
    203      11    6   2.414929 -1.431400e+01 -4.997000e+00 -1.144200e+01  # c3 C5 C2M 11 DC
    204      11    7   0.108465 -1.464900e+01 -3.996000e+00 -1.171400e+01  # H1 H7 C2M 11
    205      11    7   0.108465 -1.322300e+01 -4.984000e+00 -1.142100e+01  # H1 H8 C2M 11
    206      11    6   2.284667 -1.484700e+01 -6.049000e+00 -1.241000e+01  # c3 C6 C2M 11 DC
    207      11    8   0.084862 -1.450000e+01 -7.051000e+00 -1.214900e+01  # Hc H9 C2M 11
    208      11    8   0.084862 -1.593900e+01 -6.050000e+00 -1.243400e+01  # Hc H10 C2M 11
    209      11    8   0.084862 -1.448600e+01 -5.821000e+00 -1.341400e+01  # Hc H11 C2M 11
    210      12    1   1.910340  1.702400e+01 -2.465400e+01  1.791100e+01  # cc C1 C2M 12 DC
    211      12    2   1.882547  1.724400e+01 -2.586200e+01  1.732300e+01  # cd C2 C2M 12 DC
    212      12    3   0.232656  1.512100e+01 -2.448700e+01  1.528800e+01  # H5 H1 C2M 12
    213      12    4   0.246748  1.742600e+01 -2.423300e+01  1.881700e+01  # H4 H2 C2M 12
    214      12    4   0.238543  1.787100e+01 -2.668500e+01  1.762300e+01  # H4 H3 C2M 12
    215      12    5   2.176607  1.647400e+01 -2.590200e+01  1.617700e+01  # na N1 C2M 12 DC
    216      12    5   1.997624  1.612000e+01 -2.397200e+01  1.712000e+01  # na N2 C2M 12 DC
    217      12    1   1.947075  1.580600e+01 -2.474800e+01  1.607800e+01  # cc C3 C2M 12 DC
    218      12    6   2.057063  1.639500e+01 -2.702900e+01  1.523400e+01  # c3 C4 C2M 12 DC
    219      12    7   0.182419  1.602100e+01 -2.791100e+01  1.575300e+01  # H1 H4 C2M 12
    220      12    7   0.182419  1.571500e+01 -2.676700e+01  1.442700e+01  # H1 H5 C2M 12
    221      12    7   0.182419  1.738500e+01 -2.722700e+01  1.482400e+01  # H1 H6 C2M 12
    222      12    6   2.414929  1.561500e+01 -2.259800e+01  1.736100e+01  # c3 C5 C2M 12 DC
    223      12    7   0.108465  1.473100e+01 -2.247600e+01  1.673300e+01  # H1 H7 C2M 12
    224      12    7   0.108465  1.528600e+01 -2.256200e+01  1.840100e+01  # H1 H8 C2M 12
    225      12    6   2.284667  1.666400e+01 -2.153100e+01  1.706400e+01  # c3 C6 C2M 12 DC
    226      12    8   0.084862  1.754300e+01 -2.164000e+01  1.770200e+01  # Hc H9 C2M 12
    227      12    8   0.084862  1.698100e+01 -2.156400e+01  1.602000e+01  # Hc H10 C2M 12
    228      12    8   0.084862  1.623200e+01 -2.054700e+01  1.725700e+01  # Hc H11 C2M 12
    229      13    1   1.910340 -2.498300e+01 -9.022000e+00  2.645200e+01  # cc C1 C2M 13 DC
    230      13    2   1.882547 -2.481300e+01 -1.031500e+01  2.606500e+01  # cd C2 C2M 13 DC
    231      13    3   0.232656 -2.321400e+01 -8.693000e+00  2.375100e+01  # H5 H1 C2M 13
    232      13    4   0.246748 -2.550800e+01 -8.606000e+00  2.729600e+01  # H4 H2 C2M 13
    233      13    4   0.238543 -2.516500e+01 -1.123200e+01  2.650600e+01  # H4 H3 C2M 13
    234      13    5   2.176607 -2.406000e+01 -1.029700e+01  2.490600e+01  # na N1 C2M 13 DC
    235      13    5   1.997624 -2.433400e+01 -8.228000e+00  2.552500e+01  # na N2 C2M 13 DC
    236      13    1   1.947075 -2.378400e+01 -9.024000e+00  2.460400e+01  # cc C3 C2M 13 DC
    237      13    6   2.057063 -2.364500e+01 -1.147800e+01  2.413400e+01  # c3 C4 C2M 13 DC
    238      13    7   0.182419 -2.452800e+01 -1.201300e+01  2.378500e+01  # H1 H4 C2M 13
    239      13    7   0.182419 -2.305800e+01 -1.115200e+01  2.327800e+01  # H1 H5 C2M 13
    240      13    7   0.182419 -2.303800e+01 -1.212700e+01  2.476400e+01  # H1 H6 C2M 13
    241      13    6   2.414929 -2.423000e+01 -6.748000e+00  2.556700e+01  # c3 C5 C2M 13 DC
    242      13    7   0.108465 -2.391400e+01 -6.430000e+00  2.457200e+01  # H1 H7 C2M 13
    243      13    7   0.108465 -2.524000e+01 -6.367000e+00  2.572800e+01  # H1 H8 C2M 13
    244      13    6   2.284667 -2.326400e+01 -6.262000e+00  2.664300e+01  # c3 C6 C2M 13 DC
    245      13    8   0.084862 -2.358700e+01 -6.564000e+00  2.764100e+01  # Hc H9 C2M 13
    246      13    8   0.084862 -2.225400e+01 -6.638000e+00  2.647100e+01  # Hc H10 C2M 13
    247      13    8   0.084862 -2.322900e+01 -5.171000e+00  2.662000e+01  # Hc H11 C2M 13
    248      14    1   1.910340  1.513300e+01  8.752000e+00  6.557000e+00  # cc C1 C2M 14 DC
    249      14    2   1.882547  1.531100e+01  7.675000e+00  5.744000e+00  # cd C2 C2M 14 DC
    250      14    3   0.232656  1.749500e+01  9.778000e+00  4.582000e+00  # H5 H1 C2M 14
    251      14    4   0.246748  1.445200e+01  8.905000e+00  7.378000e+00  # H4 H2 C2M 14
    252      14    4   0.238543  1.481300e+01  6.720000e+00  5.724000e+00  # H4 H3 C2M 14
    253      14    5   2.176607  1.631100e+01  8.003000e+00  4.849000e+00  # na N1 C2M 14 DC
    254      14    5   1.997624  1.602400e+01  9.726000e+00  6.149000e+00  # na N2 C2M 14 DC
    255      14    1   1.947075  1.672400e+01  9.247000e+00  5.116000e+00  # cc C3 C2M 14 DC
    256      14    6   2.057063  1.682400e+01  7.134000e+00  3.778000e+00  # c3 C4 C2M 14 DC
    257      14    7   0.182419  1.601600e+01  6.892000e+00  3.089000e+00  # H1 H4 C2M 14
    258      14    7   0.182419  1.761100e+01  7.661000e+00  3.243000e+00  # H1 H5 C2M 14
    259      14    7   0.182419  1.723000e+01  6.223000e+00  4.215000e+00  # H1 H6 C2M 14
    260      14    6   2.414929  1.620300e+01  1.106100e+01  6.773000e+00  # c3 C5 C2M 14 DC
    261      14    7   0.108465  1.675800e+01  1.166700e+01  6.057000e+00  # H1 H7 C2M 14
    262      14    7   0.108465  1.520700e+01  1.149700e+01  6.870000e+00  # H1 H8 C2M 14
    263      14    6   2.284667  1.692000e+01  1.098400e+01  8.117000e+00  # c3 C6 C2M 14 DC
    264      14    8   0.084862  1.635800e+01  1.039000e+01  8.841000e+00  # Hc H9 C2M 14
    265      14    8   0.084862  1.791900e+01  1.055600e+01  8.011000e+00  # Hc H10 C2M 14
    266      14    8   0.084862  1.702300e+01  1.199200e+01  8.521000e+00  # Hc H11 C2M 14
    267      15    1   1.910340 -1.903800e+01  2.271100e+01  1.654100e+01  # cc C1 C2M 15 DC
    268      15    2   1.882547 -1.838400e+01  2.377000e+01  1.709100e+01  # cd C2 C2M 15 DC
    269      15    3   0.232656 -1.714200e+01  2.126700e+01  1.874400e+01  # H5 H1 C2M 15
    270      15    4   0.246748 -1.978300e+01  2.267500e+01  1.576400e+01  # H4 H2 C2M 15
    271      15    4   0.238543 -1.845500e+01  2.482500e+01  1.688400e+01  # H4 H3 C2M 15
    272      15    5   2.176607 -1.753400e+01  2.326600e+01  1.805700e+01  # na N1 C2M 15 DC
    273      15    5   1.997624 -1.858300e+01  2.157200e+01  1.717900e+01  # na N2 C2M 15 DC
    274      15    1   1.947075 -1.767400e+01  2.193600e+01  1.808800e+01  # cc C3 C2M 15 DC
    275      15    6   2.057063 -1.663800e+01  2.406100e+01  1.891200e+01  # c3 C4 C2M 15 DC
    276      15    7   0.182419 -1.722800e+01  2.475300e+01  1.951200e+01  # H1 H4 C2M 15
    277      15    7   0.182419 -1.608900e+01  2.338900e+01  1.956800e+01  # H1 H5 C2M 15
    278      15    7   0.182419 -1.593600e+01  2.461100e+01  1.828600e+01  # H1 H6 C2M 15
    279      15    6   2.414929 -1.900000e+01  2.018000e+01  1.687900e+01  # c3 C5 C2M 15 DC
    280      15    7   0.108465 -1.868100e+01  1.957100e+01  1.772500e+01  # H1 H7 C2M 15
    281      15    7   0.108465 -2.009100e+01  2.017600e+01  1.686300e+01  # H1 H8 C2M 15
    282      15    6   2.284667 -1.841500e+01  1.966700e+01  1.556700e+01  # c3 C6 C2M 15 DC