LAMMPS data file via write_data, version 23 Jun 2022, timestep = 2000000

14800 atoms
18 atom types
14400 bonds
19 bond types
14400 angles
20 angle types
25200 dihedrals
29 dihedral types
2000 impropers
5 improper types

-23.370683467306694 23.370683467306694 xlo xhi
-23.370683467306694 23.370683467306694 ylo yhi
-23.370683467306694 23.370683467306694 zlo zhi

Masses

1 11.61
2 11.61
3 1.008
4 1.008
5 13.61
6 11.61
7 1.008
8 1.008
9 13.61
10 11.61
11 13.61
12 0.4
13 0.4
14 0.4
15 0.4
16 0.4
17 0.4
18 0.4

Bond Coeffs # harmonic

1 503.999 1.371
2 350.1 1.083
3 438.798 1.371
4 350.1 1.083
5 438.798 1.371
6 356 1.079
7 334.699 1.456
8 335.899 1.093
9 303.1 1.535
10 337.3 1.092
11 803.299 1.199
12 1014.5 1.138
13 500 0
14 500 0
15 500 0
16 500 0
17 500 0
18 500 0
19 500 0

Angle Coeffs # harmonic

1 47.1901 129.11
2 72.9105 109.42
3 68.9401 109.9
4 62.5592 125.09
5 47.1901 129.11
6 72.9105 109.42
7 63.8806 128.01
8 62.5592 125.09
9 49.7596 122.1
10 50.2206 119.66
11 50.2206 119.66
12 73.6497 109.33
13 49.9007 109.45
14 65.7307 112.81
15 39.1797 109.55
16 46.3694 110.05
17 46.3595 110.07
18 39.4301 108.35
19 76.6961 180
20 74.4108 121.1

Dihedral Coeffs # charmm

1 4 2 180 0
2 4 2 180 0
3 4 2 180 0
4 4 2 180 0
5 1.69999 2 180 0
6 1.69999 2 180 0
7 1.69999 2 180 0
8 1.69999 2 180 0
9 1.69999 2 180 0
10 1.69999 2 180 0
11 1.69999 2 180 0
12 1.69999 2 180 0
13 1.69999 2 180 0
14 1.69999 2 180 0
15 1.69999 2 180 0
16 1.69999 2 180 0
17 0.165514 3 0 0
18 -0.0559 2 180 0
19 0.194825 3 0 0
20 0.0553039 4 180 0
21 1.69999 2 180 0
22 1.69999 2 180 0
23 -0.0534558 1 0 0
24 0.0797664 2 180 0
25 0.192918 3 0 0
26 0.047832 4 180 0
27 0.155995 3 0 0
28 0.155995 3 0 0
29 0 2 180 0

Improper Coeffs # cvff

1 1.1 -1 2
2 1.1 -1 2
3 1.1 -1 2
4 1.1 -1 2
5 1.1 -1 2

Atoms # full

9873 35 12 -2.086039 -18.47493767466294 -20.891246533464805 -21.93417728469675 0 0 1
647 35 1 1.91034 -18.453951602816655 -20.879191259993434 -21.933925073120474 0 0 1
9477 776 10 2.822259 -19.31420544206873 -16.331468127984763 -16.893649995952554 0 0 0
14677 776 17 -2.186135 -19.236476833584526 -16.286830863497965 -16.938464872646144 0 0 0
11204 201 14 -1.907313 -21.835237846029692 -18.038951013917302 -21.025053302041265 0 0 0
11201 201 12 -2.086039 -21.718685105273014 -19.112700626706076 -20.148051560296437 0 0 0
3801 201 1 1.91034 -21.72615239886495 -19.125458052619745 -20.157380963348192 0 0 0
3807 201 5 1.997624 -21.85314286819336 -18.03086851534292 -21.031679033137255 0 0 0
3804 201 4 0.246748 -21.29752368837155 -18.99919074926001 -19.145707478301897 0 0 0
9479 776 11 1.481136 -18.37219617206658 -15.73342143374547 -16.853868803200534 0 0 0
14679 776 18 -2.261296 -18.333506268496027 -15.706009754674824 -16.813448672748745 0 0 0
11207 201 15 -2.444943 -21.488932682816323 -16.64371225487221 -20.815082777201553 0 0 0
3813 201 6 2.414929 -21.494702765948766 -16.606101635490347 -20.80744373134829 0 0 0
14676 776 16 -2.261296 -20.30070979302676 -16.78101473648459 -16.897252946877757 0 0 0
9476 776 9 1.549368 -20.37048970268132 -16.794225738563608 -16.94259513767028 0 0 0
9478 776 10 2.822259 -20.77638805630956 -17.413104710074506 -16.046091185485416 0 0 0
14678 776 17 -2.186135 -20.83466138654049 -17.42768652639672 -16.07191907347311 0 0 0
14680 776 18 -2.261296 -21.215779714968065 -17.961639917152734 -15.202441139477308 0 0 0
9480 776 11 1.481136 -21.22698020410204 -17.99575054499308 -15.207197577254771 0 0 0
14078 656 17 -2.186135 -19.738990675721997 -20.714967219738533 -16.76476370888305 0 0 0
8878 656 10 2.822259 -19.749734509789214 -20.772929453535685 -16.858867453885395 0 0 0
650 35 4 0.246748 -19.49238605777108 -21.02365653676906 -21.81384901520577 0 0 1
8880 656 11 1.481136 -19.28927884803736 -20.470360102289646 -15.867373898991026 0 0 0
14080 656 18 -2.261296 -19.240804931990002 -20.484568176152898 -15.820090435318358 0 0 0
14076 656 16 -2.261296 -20.18666833280699 -21.04686573572828 -17.816728080401806 0 0 0
14077 656 17 -2.186135 -19.825158206466327 -21.991861668088482 -18.41719164275895 0 0 0
8877 656 10 2.822259 -19.771513530160178 -22.011547078512404 -18.371767139086565 0 0 0
11877 285 12 -2.086039 -17.982652220799682 -17.93707677704009 -13.951208180589491 0 0 0
5404 285 1 1.947075 -18.00360811816185 -17.94977528185494 -13.970479169313611 0 0 0
5399 285 3 0.232656 -18.562828014272377 -18.140182001788716 -14.862786325150482 0 0 0
3802 201 2 1.882547 -22.25830059200153 -20.221074990362762 -20.83976150456373 0 0 0
11202 201 13 -2.086039 -22.265994781666794 -20.20776234326109 -20.843650478489714 0 0 0
5403 285 5 1.997624 -18.068493713693364 -16.86016004496143 -13.119609241204753 0 0 0
11876 285 14 -1.907313 -18.063037498881176 -16.853729912994915 -13.093450075895658 0 0 0
8879 656 11 1.481136 -19.254704578140274 -22.890526881430777 -18.825270670159075 0 0 0
14079 656 18 -2.261296 -19.24869749742629 -22.85364559862859 -18.78392745260096 0 0 0
5411 285 7 0.108465 -19.63628496137659 -15.804125752884943 -13.999036488097142 0 0 0
11873 285 12 -2.086039 -17.04086135627248 -16.95959386193525 -12.21672390235175 0 0 0
5397 285 1 1.91034 -17.046068619343863 -16.932348755738907 -12.214270954408269 0 0 0
653 35 5 1.997624 -17.676221607432858 -21.93529852020364 -22.24072691733574 0 0 1
9876 35 14 -1.907313 -17.659530024794904 -21.909099357956762 -22.257387750694377 0 0 1
11875 285 14 -1.907313 -17.024458578376777 -18.675476567323066 -13.497441384053149 0 0 0
5402 285 5 2.176607 -17.011413895965603 -18.6983117079319 -13.488287177047832 0 0 0
8876 656 9 1.549368 -20.242955033493494 -21.056207530318098 -17.8900499190065 0 0 0
648 35 2 1.882547 -17.689565583824624 -19.752414770693818 -22.012849468482035 0 0 1
9874 35 13 -2.086039 -17.69188265417039 -19.75481435595722 -22.006798460428893 0 0 1
651 35 4 0.238543 -17.861203698006882 -18.709050476247178 -21.802187078102772 0 0 1
5152 272 3 0.232656 -20.524172742657754 -21.91634218990988 -14.53715938335621 1 1 0
3699 195 6 2.414929 -16.83125673026661 -19.775658035778633 -18.233696440673143 0 0 0
11159 195 15 -2.444943 -16.822821919478358 -19.76041989725508 -18.24182817222049 0 0 0
11773 272 12 -2.086039 -20.61358505134751 -22.361199867968566 -13.502332706579205 1 1 0
5157 272 1 1.947075 -20.602784625816383 -22.382751198971537 -13.545580177159472 1 1 0
3818 201 8 0.08486200000000001 -19.56410682962633 -16.94834804911123 -19.951532163178314 0 0 0
471 25 7 0.108465 -21.96102475926275 -15.68421874581061 -12.343307637903797 0 0 0
5155 272 5 2.176607 -20.41939195049239 -21.85521991473285 -12.275351921352689 1 1 0
11771 272 14 -1.907313 -20.40433306126812 -21.864228851322675 -12.262592275154617 1 1 0
3690 195 4 0.246748 -16.875253480454013 -22.693731491693114 -18.565352131878303 0 0 0
14635 767 18 -2.261296 -0.7742488648056209 -20.906915926488843 -13.329781580979603 0 0 0
3058 161 8 0.08486200000000001 -2.961647594943468 -23.271615589706933 -19.003294943349736 0 0 0
3815 201 7 0.108465 -21.93114964492074 -16.296763273861956 -19.869336845915964 0 0 0
3705 195 8 0.08486200000000001 -15.897541114782278 -17.960797653411337 -18.998563822260188 0 0 0
3700 195 7 0.108465 -17.66953501750516 -19.603241450996858 -18.875017879780167 0 0 0
13961 633 16 -2.261296 -15.846322456986336 -14.765718014059711 -22.64235328157679 0 0 0
3819 201 8 0.08486200000000001 -19.423089332690157 -16.7069984956676 -21.678046829520685 0 0 0
11208 201 15 -2.444943 -19.948868221437237 -16.356115508625763 -20.7740144337701 0 0 0
3816 201 6 2.284667 -19.93991471814862 -16.364315677661487 -20.772305731005247 0 0 0
469 25 6 2.414929 -23.000549118643228 -15.784567171194485 -12.279495956972513 0 0 0
9799 25 15 -2.444943 -23.01161402811646 -15.811286602910311 -12.284493432051562 0 0 0
3703 195 8 0.08486200000000001 -16.876906728026235 -17.699769917319912 -17.517654569548686 0 0 0
3702 195 6 2.284667 -16.15244778071344 -18.406239994857323 -18.00804840981905 0 0 0
11160 195 15 -2.444943 -16.130821753818083 -18.398442437297472 -17.99340550859097 0 0 0
659 35 6 2.414929 -18.129755073833618 -23.29553269117506 -22.064526757621458 0 0 1
9879 35 15 -2.444943 -18.107519288351973 -23.23143833130766 -22.080758471508243 0 0 1
3808 201 1 1.947075 -22.42028926353207 -18.391466175644467 -22.2417438279734 0 0 0
7668 414 10 2.822259 -16.10088325532479 -22.91126891899156 -15.656238062368919 0 1 0
5160 272 7 0.182419 -19.258312276624853 -20.2851000749445 -12.661755366911091 1 1 0
12868 414 17 -2.186135 -16.058518668489253 -22.828599406205935 -15.615883138191654 0 1 0
3701 195 7 0.108465 -17.218160018057375 -20.24832334725544 -17.329142129206073 0 0 0
5406 285 7 0.182419 -15.664275820989214 -20.252992545656475 -13.735111370512941 0 0 0
8764 633 11 1.481136 -16.973222987497174 -16.620370020981284 -22.11477885912746 0 0 0
661 35 7 0.108465 -19.267526690296 -23.275306589930466 -22.32790541929799 0 0 1
9877 35 12 -2.086039 -16.43838813478643 -21.520497493320832 -22.52381188513442 0 0 1
3814 201 7 0.108465 -21.829417842916882 -15.946723676445114 -21.59750623772636 0 0 0
5686 300 4 0.238543 -8.959203114225051 -16.957752350179756 -22.345511133421297 0 0 0
654 35 1 1.947075 -16.44875305608332 -21.55027233634796 -22.529283365351546 0 0 1
9875 35 14 -1.907313 -16.552082113078754 -20.225367501060582 -22.431031107628478 0 0 1
652 35 5 2.176607 -16.506302858523956 -20.22140271558557 -22.44550856709483 0 0 1
11878 285 15 -2.444943 -16.681743652885245 -19.980633059150346 -14.014085856913399 0 0 0
5405 285 6 2.057063 -16.687497378096513 -20.010668262172928 -14.053106507566012 0 0 0
5398 285 2 1.882547 -16.508932167991752 -18.210578746256346 -12.316284855861367 0 0 0
11874 285 13 -2.086039 -16.520812869554575 -18.25666869982225 -12.3425016803519 0 0 0
9435 767 11 1.481136 -0.7467165831884586 -20.93799447504033 -13.355414335285092 0 0 0
916 49 4 0.246748 -3.8086339322746348 -7.9842488120099855 -20.31090436864582 0 0 0
11205 201 12 -2.086039 -22.41650073485472 -18.42317936943889 -22.220918088914537 0 0 0
11203 201 14 -1.907313 -22.70394274153975 -19.708119123761616 -22.022390825629348 0 0 0
3806 201 5 2.176607 -22.723101506185845 -19.70999120045234 -22.04474796928285 0 0 0
7755 431 11 1.481136 -23.21877633160413 -9.569868559396435 -21.602790824477268 1 0 1
7364 388 7 0.182419 -23.234865266624396 -15.549194375551533 -17.43430108991236 0 0 0
13964 633 18 -2.261296 -16.987004704816457 -16.623266684533295 -22.147108602272446 0 0 0
13962 633 17 -2.186135 -16.33267749502623 -15.741370440853519 -22.20992881955824 0 0 0
8762 633 10 2.822259 -16.339216061857233 -15.717246268003983 -22.27243750177741 0 0 0
12955 431 18 -2.261296 -23.262374828130042 -9.557998978109262 -21.60175014996295 1 0 1
3803 201 3 0.232656 -22.55787861851714 -17.753863806009974 -23.125185548959525 0 0 0
4575 241 7 0.108465 -16.498179790208052 -8.075171698746084 -21.652686089489467 0 0 0
3805 201 4 0.238543 -22.48732500944483 -21.26299568880116 -20.569028611446083 0 0 0
468 25 7 0.182419 -23.316136231295246 -21.010667931128257 -12.779893057486921 0 0 0
9985 49 12 -2.086039 -4.808116425252521 -7.840212257217404 -19.915505812690338 0 0 0
1881 99 8 0.08486200000000001 -10.894078262303822 -14.675708906780436 -12.058420187090409 0 0 0
7666 414 9 1.549368 -17.138461141428976 -23.222936616935574 -16.176968081874698 0 1 0
3042 161 2 1.882547 -6.318181868088587 -21.70113648941135 -22.963080786360404 0 0 0
3687 195 1 1.91034 -16.03827329048185 -22.163132561569757 -19.0114772710045 0 0 0
11153 195 12 -2.086039 -16.03167187919346 -22.12929081437482 -19.010526694371787 0 0 0
3693 195 5 1.997624 -15.887501666763281 -20.793180613694467 -18.831347924263888 0 0 0
11156 195 14 -1.907313 -15.90324298916973 -20.766065123610403 -18.81688959854929 0 0 0
12870 414 18 -2.261296 -15.117175375656336 -22.915570078690894 -15.01292151989071 0 1 0
5032 265 6 2.284667 -11.384336404558177 -8.036978700092652 -22.742589260974025 0 0 0
7670 414 11 1.481136 -15.130616304559638 -22.8639301409638 -15.036203704146832 0 1 0
5408 285 7 0.182419 -16.665134472309788 -19.889963006393888 -15.143604777037075 0 0 0
5407 285 7 0.182419 -17.45163100224882 -20.767772597744862 -13.785794982208124 0 0 0
3502 185 5 2.176607 -11.49759408354849 -23.072533260413238 -15.986928613206976 0 0 0
11075 185 14 -1.907313 -11.48576285726894 -23.04898286693315 -15.961329531317364 0 0 0
3497 185 1 1.91034 -10.491641850972066 -22.08095929182752 -14.417518577723195 0 0 0
11073 185 12 -2.086039 -10.46376147015439 -22.10057892347538 -14.425319437360692 0 0 0
3704 195 8 0.08486200000000001 -15.229043253522292 -18.6194822472627 -17.511154849616993 0 0 0
5683 300 2 1.882547 -8.95435223357353 -18.021965784409165 -22.179453220855386 0 0 0
3689 195 3 0.232656 -14.144345722164516 -19.50334044062631 -19.29920483748155 0 0 0
3694 195 1 1.947075 -14.697839188796118 -20.43012184027997 -19.415722661955055 0 0 0
11157 195 12 -2.086039 -14.713915920993099 -20.456787354883758 -19.422351313064397 0 0 0
11158 195 15 -2.444943 -12.710049865513781 -21.7531289436797 -20.202788771772674 0 0 0
3692 195 5 2.176607 -14.105162597449494 -21.62731120501476 -19.76726551319733 0 0 0
11155 195 14 -1.907313 -14.135514051261167 -21.632094856879995 -19.76108112987418 0 0 0
3695 195 6 2.057063 -12.679498499880163 -21.75637490612536 -20.223598491179093 0 0 0
3501 185 4 0.238543 -12.71655925180448 -21.820035803178595 -14.737943000571782 0 0 0
13375 515 18 -2.261296 -12.555807718208607 -19.59878109798636 -17.014001215581136 0 1 0
8175 515 11 1.481136 -12.57143094430793 -19.61620794785086 -17.05102183675666 0 1 0
8172 515 10 2.822259 -10.32679605491971 -18.524023517125105 -15.371182767004683 0 1 0
13372 515 17 -2.186135 -10.254188583403703 -18.488635535385434 -15.273746373292516 0 1 0
3688 195 2 1.882547 -14.938387269260119 -22.68967625729032 -19.599230323150312 0 0 0
11154 195 13 -2.086039 -14.91820833067341 -22.674760651113985 -19.60437470628928 0 0 0
8173 515 10 2.822259 -11.600548623785949 -19.047087604047768 -16.858945900764066 0 1 0
13373 515 17 -2.186135 -11.58791987545578 -19.02759207971432 -16.912506544915093 0 1 0
13371 515 16 -2.261296 -10.676320405893103 -18.414958743638586 -16.39313296032575 0 1 0
8171 515 9 1.549368 -10.67604742168434 -18.384871694489583 -16.49033618371395 0 1 0
8319 544 11 1.481136 -12.626532099821185 -18.52964947324572 -21.08171035060565 0 0 0
13519 544 18 -2.261296 -12.669279770055349 -18.52036795506575 -21.080530427103994 0 0 0
11993 300 12 -2.086039 -8.497957192939053 -18.815034029933294 -21.160115331194195 0 0 0
5682 300 1 1.91034 -8.50842277454809 -18.825740670386573 -21.164240133316838 0 0 0
3500 185 4 0.246748 -10.125996044709408 -21.43425016945785 -13.595525957002032 0 0 0
1867 99 4 0.238543 -13.574871785678734 -18.45023069915507 -15.041106285993115 0 0 0
8317 544 10 2.822259 -12.306179767099183 -17.85598484065172 -20.219287582371315 0 0 0
13517 544 17 -2.186135 -12.262721898086008 -17.908960584297837 -20.259221675420413 0 0 0
11997 300 12 -2.086039 -9.602014140748711 -20.13868652132438 -22.614245062015904 0 0 0
5689 300 1 1.947075 -9.611489559886987 -20.158851926280718 -22.632697588313185 0 0 0
3696 195 7 0.182419 -12.517886447317556 -21.256082300039946 -21.183132808565183 0 0 0
11996 300 14 -1.907313 -8.904927795403033 -20.13558963969775 -21.414883670212415 0 0 0
5688 300 5 1.997624 -8.924186515078304 -20.14687469202214 -21.43407705542977 0 0 0
10386 99 13 -2.086039 -13.40668890725597 -17.68579465089188 -14.258533539694668 0 0 0
1864 99 2 1.882547 -13.388159198040887 -17.697577847902853 -14.24723478600495 0 0 0
13374 515 18 -2.261296 -9.996395553720202 -18.747946606769837 -14.250794221567983 0 1 0
8174 515 11 1.481136 -10.001787925292566 -18.71205629295099 -14.311474286101246 0 1 0
10385 99 12 -2.086039 -12.66518947717608 -17.613767970998698 -13.07924716179987 0 0 0
1866 99 4 0.246748 -11.964583710373313 -18.294978191278734 -12.598660955140415 0 0 0
1863 99 1 1.91034 -12.658444123410542 -17.623514151473323 -13.0833670160478 0 0 0
13516 544 16 -2.261296 -12.114675287094167 -17.207627304066698 -19.30214106062173 0 0 0
8316 544 9 1.549368 -12.046504799560317 -17.225741002902936 -19.25329273535432 0 0 0
1868 99 5 2.176607 -14.15881985816868 -16.582967724698115 -14.347121387931516 0 0 0
10387 99 14 -1.907313 -14.153671496404845 -16.598789939058463 -14.361645504596357 0 0 0
5695 300 7 0.108465 -9.612510741293566 -21.938531160853476 -20.946150189254002 0 0 0
4525 239 3 0.232656 -9.702920762194024 -16.197186286293192 -14.770255939895064 0 0 0
1869 99 5 1.997624 -13.002548217657015 -16.3767131954901 -12.528212151634964 0 0 0
10388 99 14 -1.907313 -12.983726882464152 -16.36542859990145 -12.532028533495025 0 0 0
11994 300 13 -2.086039 -8.973777822727769 -18.033669726014704 -22.208583014539656 0 0 0
11999 300 15 -2.444943 -8.913097453213428 -21.234189251135394 -20.517021057736567 0 0 0
5694 300 6 2.414929 -8.89076771865362 -21.27157375087853 -20.50816010043794 0 0 0
3498 185 2 1.882547 -11.720441798154415 -22.198734692852284 -14.98004938179423 0 0 0
11074 185 13 -2.086039 -11.711466932818881 -22.211146211611467 -14.974587260094664 0 0 0
5700 300 8 0.08486200000000001 -10.201467478000364 -20.411200790283466 -18.878383322212784 0 0 0
3697 195 7 0.182419 -12.135531637619481 -21.287876622205673 -19.41162542081657 0 0 0
3698 195 7 0.182419 -12.354134374828293 -22.839677219437014 -20.26993979488119 0 0 0
8318 544 10 2.822259 -12.807472616119 -16.404263919358407 -18.92309741042577 0 0 0
13518 544 17 -2.186135 -12.79498575218097 -16.348673961518344 -18.859203330101344 0 0 0
5697 300 6 2.284667 -9.249421665438895 -20.974062851553935 -19.09826598769871 0 0 0
12000 300 15 -2.444943 -9.244924107990053 -20.970265863152235 -19.082082104726016 0 0 0
5698 300 8 0.08486200000000001 -9.51953447820632 -21.949274280644996 -18.67833717241511 0 0 0
5699 300 8 0.08486200000000001 -8.490781107390308 -20.426497038276302 -18.513217762457813 0 0 0
5696 300 7 0.108465 -7.886581125635853 -21.7612358139502 -20.589047518430853 0 0 0
3509 185 6 2.414929 -8.135297577645995 -22.763708815793176 -15.190837263723138 0 0 0
11079 185 15 -2.444943 -8.150289083850126 -22.751474793975895 -15.2089778645674 0 0 0
3503 185 5 1.997624 -9.604732261638425 -22.724297225507204 -15.272172837990057 0 0 0
11076 185 14 -1.907313 -9.582177744371778 -22.72240574500078 -15.287967485806382 0 0 0
10882 161 13 -2.086039 -6.3126989494598575 -21.64792981196742 -22.983640042470814 0 0 0
5685 300 4 0.246748 -8.031379364857195 -18.573192844488318 -20.240231754381355 0 0 0
3514 185 8 0.08486200000000001 -7.830004832552378 -22.036149640780074 -17.21191776944146 0 0 0
11512 239 15 -2.444943 -7.632964477676955 -15.43218194282672 -12.03867710649367 0 0 0
5158 272 6 2.057063 -20.133421435202916 -20.477832660011597 -12.07784051985969 1 1 0
851 45 7 0.108465 -11.108880401499384 -12.79122084372188 -22.70945354207 0 0 1
12866 414 16 -2.261296 -17.053458481288864 -23.273286284967508 -16.14899223830061 0 1 0
5161 272 7 0.182419 -20.99302847392173 -19.963640088090717 -12.449399887749438 1 1 0
8320 544 11 1.481136 -13.48733258421379 -15.547899612311262 -18.666381503351538 0 0 0
13520 544 18 -2.261296 -13.511649255117543 -15.54022253997944 -18.68467344344483 0 0 0
1872 99 7 0.182419 -15.046103123240282 -17.088694336077175 -16.2201287503443 0 0 0
4530 239 1 1.947075 -9.6487749724537 -15.15120295059789 -14.61050902833065 0 0 0
4532 239 7 0.182419 -12.116182783166725 -13.605561655463493 -16.27853493384569 0 0 0
12953 431 17 -2.186135 -22.963285201149993 -8.88019294176199 -22.420058255444214 1 0 1
5343 282 4 0.246748 -16.333867649649182 -23.22708082093966 -12.982655368659564 0 1 0
10883 161 14 -1.907313 -5.846401760725836 -20.482652092864875 -22.870823824672737 0 0 0
7753 431 10 2.822259 -23.026058692025092 -8.815474023914277 -22.416234874286637 1 0 1
7941 469 9 1.549368 -8.423919461804322 -11.539541930396227 -23.219993549595408 0 0 0
8401 561 9 1.549368 -0.019718336455316177 -22.29548184058435 -16.58527652675297 0 0 0
13605 561 18 -2.261296 -0.17477355496201952 -21.679444192397124 -18.821251828033443 0 0 0
4317 228 4 0.246748 -0.3697214352496303 -18.741416275141432 -17.14984448328797 0 1 0
7538 397 7 0.108465 -4.195870616474043 -11.452596096781837 -22.5111996033754 0 0 0
7568 399 5 2.176607 -0.1201289485827175 -16.170053548511696 -12.45571002091324 0 0 0
657 35 7 0.182419 -15.329884137133833 -18.66483090440496 -21.89859214638376 0 0 1
649 35 3 0.232656 -15.623972056757719 -22.15014542693687 -22.863573228267377 0 0 1
1685 89 6 2.414929 -0.6773407693720799 -18.582214837019105 -20.63207413913102 0 0 1
7372 388 8 0.08486200000000001 -22.720019193610497 -20.346323377038004 -15.435265336567934 0 0 0
8535 587 11 1.481136 -21.83140228717389 -23.26746224734935 -21.854531009363043 1 1 0
11714 265 13 -2.086039 -13.979793547251527 -11.724314230150465 -22.902810666265108 0 0 0
13603 561 17 -2.186135 -0.1934273156080728 -21.868274491767416 -17.691320700462843 0 0 0
1691 89 8 0.08486200000000001 -1.4334037478480504 -19.43576665921682 -22.507154962156488 0 0 1
4536 239 7 0.108465 -7.167194033344135 -15.8746607411849 -14.150523282099625 0 0 0
5021 265 4 0.238543 -14.849834892205102 -12.294584695069759 -22.653135433831928 0 0 0
3221 170 7 0.182419 -6.346597371854699 -20.466153073387044 -13.821731254059651 0 0 0
13063 453 17 -2.186135 -4.810041769921721 -22.717661294468197 -13.47382358069809 0 0 0
3513 185 8 0.08486200000000001 -6.308203108081358 -22.127080221072184 -16.3056140139216 0 0 0
11080 185 15 -2.444943 -7.364167456978279 -21.870977765154546 -16.252401281768833 0 0 0
3512 185 6 2.284667 -7.374380268746332 -21.891557785269182 -16.250208907549077 0 0 0
7863 453 10 2.822259 -4.7936954844848145 -22.791333922861917 -13.46942774454444 0 0 0
3222 170 7 0.182419 -8.011490706878812 -20.030728486644943 -13.862963439497054 0 0 0
11417 228 12 -2.086039 -1.2138252271528422 -18.411619316578566 -16.533544659269356 0 1 0
10881 161 12 -2.086039 -5.675071634502601 -22.36739958659233 -22.02231452862144 0 0 0
3515 185 8 0.08486200000000001 -7.5204780837117085 -20.84046348508898 -16.021306752442463 0 0 0
3055 161 7 0.108465 -5.055858126712302 -21.839003143405016 -19.166311542140477 0 0 0
3041 161 1 1.91034 -5.670134898188607 -22.375330656242717 -21.994461919456626 0 0 0
4326 228 6 2.414929 -1.0835469057457559 -16.007890923002833 -17.193165516768275 0 1 0
4318 228 4 0.238543 -1.8176440665943225 -20.202529662218506 -15.247150092956208 0 1 0
3053 161 6 2.414929 -4.278854308204224 -21.89583058506615 -19.91896015775842 0 0 0
11418 228 13 -2.086039 -1.9222496256528139 -19.16802470897205 -15.589353406131 0 1 0
10884 161 14 -1.907313 -4.979078266635199 -21.565310917945418 -21.20501799506343 0 0 0
3047 161 5 1.997624 -4.976507472295307 -21.538944162139128 -21.193174660561414 0 0 0
4323 228 7 0.182419 -3.1687705483919046 -19.39941678372309 -13.381679135476285 0 1 0
11421 228 12 -2.086039 -2.7006175958393435 -17.11362744626624 -15.653577375598644 0 1 0
14699 780 18 -2.261296 -4.68355127465319 -18.86227450122779 -19.198371065938908 0 1 0
9499 780 11 1.481136 -4.676061431057548 -18.871390892635432 -19.214901294062003 0 1 0
3223 170 7 0.182419 -6.8679646547339175 -18.723591124855393 -13.981592976009603 0 0 0
9496 780 9 1.549368 -6.212717425515663 -17.83146260267452 -17.805154779847562 0 1 0
9497 780 10 2.822259 -5.436269805168692 -18.423868270447773 -18.505158498266745 0 1 0
9498 780 10 2.822259 -5.892348835407603 -17.365705242123035 -16.733443871889428 0 1 0
14698 780 17 -2.186135 -5.906732379491228 -17.31473544973674 -16.63304091549191 0 1 0
9500 780 11 1.481136 -5.627017181906364 -16.800190508904112 -15.746886285016764 0 1 0
14700 780 18 -2.261296 -5.584345736436816 -16.760285326622295 -15.710351168858018 0 1 0
4322 228 6 2.057063 -3.467215964848563 -18.49374226801598 -13.833771544442826 0 1 0
11422 228 15 -2.444943 -3.456543266117464 -18.487533662469275 -13.856523975258852 0 1 0
14697 780 17 -2.186135 -5.48232478845275 -18.437184548326574 -18.535378026456275 0 1 0
14696 780 16 -2.261296 -6.162361932086419 -17.79795954022444 -17.744799618614802 0 1 0
3220 170 6 2.057063 -7.042843922271729 -19.691155347455123 -13.541626958432218 0 0 0
10958 170 15 -2.444943 -7.022857865160088 -19.689780849461822 -13.512934850638352 0 0 0
11419 228 14 -1.907313 -2.771455744920843 -18.310807434005348 -15.11696849384329 0 1 0
4319 228 5 2.176607 -2.78643331579293 -18.301366788547945 -15.097352402978268 0 1 0
4321 228 1 1.947075 -2.744003669653548 -17.073812448158165 -15.653114228357431 0 1 0
4325 228 7 0.182419 -4.532642763455726 -18.42973838491189 -13.967095666023912 0 1 0
4324 228 7 0.182419 -3.150503681822311 -17.609934227800622 -13.251339189617957 0 1 0
4316 228 3 0.232656 -3.4117411614631585 -16.270869112084192 -15.422401376134381 0 1 0
8113 503 10 2.822259 -4.565383562597514 -16.15236218988919 -22.36592293181942 0 0 1
13313 503 17 -2.186135 -4.487609684355338 -16.173066985806116 -22.359098856945607 0 0 1
4320 228 5 1.997624 -1.7208507112214129 -17.159218997930108 -16.58353398533694 0 1 0
11420 228 14 -1.907313 -1.7136564174077833 -17.116801991261987 -16.62376531750893 0 1 0
4315 228 2 1.882547 -1.9126620184136058 -19.184926711847098 -15.58910759156339 0 1 0
3054 161 7 0.108465 -3.525369479849168 -21.13889109156787 -19.61827627200338 0 0 0
11423 228 15 -2.444943 -1.1087468190388137 -15.971831296997522 -17.208477494174467 0 1 0
10887 161 15 -2.444943 -4.27591597433166 -21.897143481303285 -19.95920552698363 0 0 0
7865 453 11 1.481136 -4.303127803329744 -21.908212688375976 -12.939739545758178 0 0 0
4328 228 7 0.108465 -0.3516276955132902 -16.44603282129825 -17.822142836816564 0 1 0
13065 453 18 -2.261296 -4.2906017003443075 -21.919272827400523 -12.909747321546527 0 0 0
10885 161 12 -2.086039 -5.073309154849497 -20.392958032591583 -21.852149782208514 0 0 0
3043 161 3 0.232656 -4.755198403621499 -19.36753723286627 -21.467315315252126 0 0 0
4314 228 1 1.91034 -1.2030840842096069 -18.44345067287232 -16.526004952595564 0 1 0
3048 161 1 1.947075 -5.06573802890729 -20.356827528433634 -21.833472163277595 0 0 0
9433 767 10 2.822259 -0.9489361003546932 -20.66677547885965 -12.268526244705923 0 0 0
14633 767 17 -2.186135 -0.8949186460956042 -20.70852179799957 -12.227973113270375 0 0 0
1688 89 6 2.284667 -1.7716836292044889 -19.38471047422087 -21.420707409486113 0 0 1
1690 89 8 0.08486200000000001 -2.703499876558368 -18.784304920508323 -21.435536454431283 0 0 1
1689 89 8 0.08486200000000001 -1.9747301574905336 -20.381452663594693 -21.013539513440552 0 0 1
10312 89 15 -2.444943 -1.7745426824612025 -19.40934774321365 -21.42505774833659 0 0 1
4332 228 8 0.08486200000000001 -2.572973313704285 -15.839046688556955 -18.710330762416042 0 1 0
10305 89 12 -2.086039 -1.0692101586839158 -16.21280484212834 -21.281372847809692 0 0 1
1673 89 1 1.91034 -1.0652031326196791 -16.2188012901879 -21.30694292813309 0 0 1
1676 89 4 0.246748 -2.0304221850142277 -16.190704159893787 -20.788766926531846 0 0 1
10955 170 14 -1.907313 -7.190738005748898 -19.30135647038649 -12.120304563982115 0 0 0
1687 89 7 0.108465 -1.0004226018791833 -18.30875041063024 -19.639439077859667 0 0 1
8405 561 11 1.481136 -0.20398556319894823 -21.664160040136263 -18.85432371679197 0 0 0
655 35 6 2.057063 -15.339767193797472 -19.330212727213958 -22.73216133568458 0 0 1
3510 185 7 0.108465 -7.678870171649825 -22.490960231680916 -14.244518741700036 0 0 0
3214 170 3 0.232656 -9.370992408246694 -19.47981716165394 -11.814928714642981 0 0 0
10308 89 14 -1.907313 -0.33856519365667737 -17.358173936274966 -21.25753837365102 0 0 1
4500 237 6 2.284667 -1.0262779148669594 -22.926572764477857 -22.542524615955944 0 1 0
4329 228 6 2.284667 -2.0907073256755417 -15.173797912535482 -18.02901624154256 0 1 0
10311 89 15 -2.444943 -0.6749565610009647 -18.55662245454664 -20.64154001278367 0 0 1
4327 228 7 0.108465 -0.6025602600639246 -15.318967963302205 -16.467170849145273 0 1 0
11424 228 15 -2.444943 -2.1144184258749696 -15.138397363661282 -18.062624577106796 0 1 0
10306 89 13 -2.086039 -0.4724831571998074 -15.253691704555497 -22.087322014692422 0 0 1
1674 89 2 1.882547 -0.4587436880081768 -15.264922321247308 -22.084548859009704 0 0 1
3236 171 5 2.176607 -17.378162406396324 -8.108274757006983 -16.899937934611636 0 0 0
8403 561 10 2.822259 -0.12834661428678018 -21.884359954398235 -17.721419839060182 0 0 0
10888 161 15 -2.444943 -3.5701046473760343 -23.24639414139254 -19.886945300857157 0 0 0
1679 89 5 1.997624 -0.3093031712033927 -17.355324379785078 -21.26497719741003 0 0 1
3217 170 5 2.176607 -7.208099381236988 -19.313599094241514 -12.144042649839577 0 0 0
6690 353 2 1.882547 -5.1872833595837236 -12.869118203879191 -16.08659807043587 0 0 0
3056 161 6 2.284667 -3.5796205821306764 -23.23767247563908 -19.887213656526843 0 0 0
12951 431 16 -2.261296 -23.006899096461677 -7.986303967415141 -23.165993532690436 1 0 1
3817 201 8 0.08486200000000001 -19.60107556938071 -15.328905261592412 -20.76768462218349 0 0 0
11774 272 15 -2.444943 -20.137088119112708 -20.490020687485455 -12.077373846861226 1 1 0
8905 661 11 1.481136 -8.459425777303512 -22.911350092998003 -11.886609936411014 0 0 0
11496 237 15 -2.444943 -1.0375468768684257 -22.91653753546743 -22.538635615676032 0 1 0
7533 397 6 2.057063 -0.9998015337101869 -8.6050007155081 -19.911957361939635 0 0 0
8761 633 9 1.549368 -15.798170821139706 -14.745734084780077 -22.5866153489721 0 0 0
4578 241 8 0.08486200000000001 -18.072477128059468 -9.797064368033446 -22.426054121118792 0 0 0
11995 300 14 -1.907313 -9.59107442539332 -18.937339566825536 -22.985740673654387 0 0 0
243 13 7 0.108465 -22.138147861596558 -13.509071082977316 -21.19357744781467 0 0 1
4568 241 1 1.947075 -14.49204426356508 -8.162019199126858 -20.149726436945453 0 0 0
9878 35 15 -2.444943 -15.382626795467559 -19.357340020717846 -22.73775256669273 0 0 1
4579 241 8 0.08486200000000001 -16.37408827258993 -10.458655210610974 -22.748778398095983 0 0 0
13735 587 18 -2.261296 -21.842601591908196 -23.263365741426437 -21.897808952978465 1 1 0
849 45 6 2.414929 -10.98126489799204 -13.840411045988102 -22.54134090110639 0 0 1
5409 285 6 2.414929 -18.71772156537349 -15.613602427343984 -13.468706230462463 0 0 0